
    -----------------------------------------------------------------------
          Psi4: An Open-Source Ab Initio Electronic Structure Package
                               Psi4 1.3.2 release

                         Git: Rev {HEAD} ecbda83 


    R. M. Parrish, L. A. Burns, D. G. A. Smith, A. C. Simmonett,
    A. E. DePrince III, E. G. Hohenstein, U. Bozkaya, A. Yu. Sokolov,
    R. Di Remigio, R. M. Richard, J. F. Gonthier, A. M. James,
    H. R. McAlexander, A. Kumar, M. Saitow, X. Wang, B. P. Pritchard,
    P. Verma, H. F. Schaefer III, K. Patkowski, R. A. King, E. F. Valeev,
    F. A. Evangelista, J. M. Turney, T. D. Crawford, and C. D. Sherrill,
    J. Chem. Theory Comput. 13(7) pp 3185--3197 (2017).
    (doi: 10.1021/acs.jctc.7b00174)


                         Additional Contributions by
    P. Kraus, H. Kruse, M. H. Lechner, M. C. Schieber, R. A. Shaw,
    A. Alenaizan, R. Galvelis, Z. L. Glick, S. Lehtola, and J. P. Misiewicz

    -----------------------------------------------------------------------


    Psi4 started on: Wednesday, 10 March 2021 09:39AM

    Process ID: 46793
    Host:       b1-8.compute.lan
    PSIDATADIR: /apps/gb/PSI4/1.3.2/share/psi4
    Memory:     500.0 MiB
    Threads:    12
    
  ==> Input File <==

--------------------------------------------------------------------------
memory 4 GB

molecule  {
0 3
O   -0.000000000000    0.000000000000   -1.616354722000
H    0.000000000000   -0.753858521800   -1.019959688800
H   -0.000000000000    0.753858521800   -1.019959688800
O   -0.000000000000    0.000000000000    1.744888187900
}
set {
basis aug-cc-pvtz
reference uhf
e_convergence 10
scf_type pk
freeze_core true
}

set ccenergy {
e_convergence 10
r_convergence 10
}

e = energy('ccsd(t)')

print_out('Stephenergy {}'.format(e))

--------------------------------------------------------------------------

  Memory set to   3.725 GiB by Python driver.

*** tstart() called on b1-8.compute.lan
*** at Wed Mar 10 09:39:21 2021

   => Loading Basis Set <=

    Name: AUG-CC-PVTZ
    Role: ORBITAL
    Keyword: BASIS
    atoms 1, 4 entry O          line   327 file /apps/gb/PSI4/1.3.2/share/psi4/basis/aug-cc-pvtz.gbs 
    atoms 2-3  entry H          line    36 file /apps/gb/PSI4/1.3.2/share/psi4/basis/aug-cc-pvtz.gbs 


         ---------------------------------------------------------
                                   SCF
               by Justin Turney, Rob Parrish, Andy Simmonett
                          and Daniel G. A. Smith
                              UHF Reference
                       12 Threads,   3814 MiB Core
         ---------------------------------------------------------

  ==> Geometry <==

    Molecular point group: c2v
    Full point group: C2v

    Geometry (in Angstrom), charge = 0, multiplicity = 3:

       Center              X                  Y                   Z               Mass       
    ------------   -----------------  -----------------  -----------------  -----------------
         O            0.000000000000     0.000000000000    -1.616354722010    15.994914619570
         H            0.000000000000    -0.753858521800    -1.019959688810     1.007825032230
         H           -0.000000000000     0.753858521800    -1.019959688810     1.007825032230
         O            0.000000000000     0.000000000000     1.744888187890    15.994914619570

  Running in c2v symmetry.

  Rotational constants: A =     14.71640  B =      0.18208  C =      0.17985 [cm^-1]
  Rotational constants: A = 441186.65296  B =   5458.60307  C =   5391.89164 [MHz]
  Nuclear repulsion =   22.189488177200083

  Charge       = 0
  Multiplicity = 3
  Electrons    = 18
  Nalpha       = 10
  Nbeta        = 8

  ==> Algorithm <==

  SCF Algorithm Type is PK.
  DIIS enabled.
  MOM disabled.
  Fractional occupation disabled.
  Guess Type is SAD.
  Energy threshold   = 1.00e-10
  Density threshold  = 1.00e-08
  Integral threshold = 0.00e+00

  ==> Primary Basis <==

  Basis Set: AUG-CC-PVTZ
    Blend: AUG-CC-PVTZ
    Number of shells: 46
    Number of basis function: 138
    Number of Cartesian functions: 160
    Spherical Harmonics?: true
    Max angular momentum: 3

  ==> Pre-Iterations <==

   -------------------------------------------------------
    Irrep   Nso     Nmo     Nalpha   Nbeta   Ndocc  Nsocc
   -------------------------------------------------------
     A1        54      54       0       0       0       0
     A2        17      17       0       0       0       0
     B1        29      29       0       0       0       0
     B2        38      38       0       0       0       0
   -------------------------------------------------------
    Total     138     138      10       8       8       2
   -------------------------------------------------------

  ==> Integral Setup <==

  Using in-core PK algorithm.
   Calculation information:
      Number of atoms:                   4
      Number of AO shells:              46
      Number of primitives:             82
      Number of atomic orbitals:       160
      Number of basis functions:       138

      Integral cutoff                 1.00e-12
      Number of threads:                12

  Performing in-core PK
  Using 91996872 doubles for integral storage.
  We computed 909775 shell quartets total.
  Whereas there are 584821 unique shell quartets.
    55.56 percent of shell quartets recomputed by reordering.

  ==> DiskJK: Disk-Based J/K Matrices <==

    J tasked:                  Yes
    K tasked:                  Yes
    wK tasked:                  No
    Memory [MiB]:             2861
    Schwarz Cutoff:          1E-12

    OpenMP threads:             12

  Minimum eigenvalue in the overlap matrix is 3.6948996097E-04.
  Using Symmetric Orthogonalization.

  SCF Guess: Superposition of Atomic Densities via on-the-fly atomic UHF.

  ==> Iterations <==

                        Total Energy        Delta E     RMS |[F,P]|

   @UHF iter SAD:  -149.38521411711565   -1.49385e+02   0.00000e+00 
   @UHF iter   1:  -150.76776289863636   -1.38255e+00   6.88580e-03 DIIS
   @UHF iter   2:  -150.83857691930626   -7.08140e-02   4.45673e-03 DIIS
   @UHF iter   3:  -150.87222973569104   -3.36528e-02   5.34516e-04 DIIS
   @UHF iter   4:  -150.87334293033419   -1.11319e-03   1.77533e-04 DIIS
   @UHF iter   5:  -150.87347078567194   -1.27855e-04   7.04213e-05 DIIS
   @UHF iter   6:  -150.87350413795144   -3.33523e-05   2.01151e-05 DIIS
   @UHF iter   7:  -150.87350703503125   -2.89708e-06   4.79644e-06 DIIS
   @UHF iter   8:  -150.87350721472563   -1.79694e-07   1.20208e-06 DIIS
   @UHF iter   9:  -150.87350722552623   -1.08006e-08   2.29906e-07 DIIS
   @UHF iter  10:  -150.87350722587965   -3.53424e-10   7.56388e-08 DIIS
   @UHF iter  11:  -150.87350722592856   -4.89138e-11   3.83703e-08 DIIS
   @UHF iter  12:  -150.87350722594613   -1.75646e-11   1.04840e-08 DIIS
   @UHF iter  13:  -150.87350722594718   -1.05160e-12   3.60108e-09 DIIS
  Energy and wave function converged.


  ==> Post-Iterations <==

   @Spin Contamination Metric:   9.199931521E-03
   @S^2 Expected:                2.000000000E+00
   @S^2 Observed:                2.009199932E+00
   @S   Expected:                1.000000000E+00
   @S   Observed:                1.000000000E+00

    Orbital Energies [Eh]
    ---------------------

    Alpha Occupied:                                                       

       1A1   -20.729490     2A1   -20.562566     3A1    -1.438568  
       4A1    -1.346861     1B2    -0.729996     1B1    -0.729546  
       2B2    -0.707871     5A1    -0.633289     6A1    -0.579690  
       2B1    -0.505055  

    Alpha Virtual:                                                        

       7A1     0.035602     3B2     0.048552     3B1     0.131907  
       8A1     0.134272     9A1     0.148844     4B2     0.158310  
       4B1     0.181867     5B2     0.185042    10A1     0.189574  
      11A1     0.252740     6B2     0.258762     1A2     0.265984  
      12A1     0.273734     5B1     0.320927    13A1     0.370298  
       7B2     0.383040    14A1     0.454231     8B2     0.472359  
       2A2     0.609347     9B2     0.618746    15A1     0.620162  
      16A1     0.621851     6B1     0.641980    17A1     0.717733  
       3A2     0.731132    10B2     0.737907     7B1     0.744828  
      18A1     0.800628     8B1     0.838461    19A1     0.840777  
      11B2     0.852705     9B1     0.916143    20A1     0.935679  
       4A2     0.935926    12B2     0.942153    21A1     0.959325  
      10B1     0.967194    13B2     0.970440    22A1     1.050120  
      14B2     1.055264    11B1     1.128842     5A2     1.186975  
      23A1     1.188714    24A1     1.265028    15B2     1.266685  
      16B2     1.276013    25A1     1.356788     6A2     1.511355  
      12B1     1.591636    26A1     1.650702    27A1     1.829378  
      17B2     1.832674    18B2     1.971597    13B1     1.978164  
      19B2     1.993243    28A1     2.005236     7A2     2.012475  
      14B1     2.027762    29A1     2.037659     8A2     2.043315  
      20B2     2.087155    30A1     2.089023    15B1     2.125038  
      31A1     2.155308    21B2     2.274510    16B1     2.282612  
       9A2     2.331644    32A1     2.352936    33A1     2.404593  
      34A1     2.488898    22B2     2.496982    17B1     2.514383  
      35A1     2.577198    23B2     2.690218    18B1     2.719911  
      36A1     2.822279    10A2     2.889539    24B2     2.907876  
      25B2     3.668381    37A1     3.753478    11A2     4.033154  
      19B1     4.051192    26B2     4.089604    20B1     4.104256  
      38A1     4.160438    27B2     4.278970    21B1     4.283137  
      39A1     4.368287    12A2     4.384087    22B1     4.417738  
      40A1     4.419789    28B2     4.531264    41A1     4.751958  
      29B2     4.854894    13A2     5.151053    30B2     5.166289  
      31B2     5.251918    42A1     5.373858    23B1     5.529648  
      43A1     5.677033    44A1     6.201375    24B1     6.314681  
      32B2     6.315738    14A2     6.371967    45A1     6.378325  
      25B1     6.404275    33B2     6.458549    46A1     6.487456  
      34B2     6.529809    26B1     6.742884    15A2     6.819569  
      47A1     6.821118    27B1     6.930573    48A1     6.931101  
      35B2     6.961738    49A1     7.035395    28B1     7.136954  
      29B1     7.261798    16A2     7.319528    36B2     7.349705  
      17A2     7.358819    50A1     7.361050    51A1     7.551802  
      52A1     7.899743    37B2     7.939493    53A1     8.561683  
      38B2     8.815931    54A1    15.747217  

    Beta Occupied:                                                        

       1A1   -20.650935     2A1   -20.562610     3A1    -1.347068  
       4A1    -1.096304     1B2    -0.708046     5A1    -0.584762  
       6A1    -0.538696     1B1    -0.505041  

    Beta Virtual:                                                         

       2B2     0.035004     7A1     0.036747     2B1     0.049517  
       3B2     0.069608     8A1     0.140381     9A1     0.151356  
       3B1     0.160540     4B2     0.180603    10A1     0.189904  
       5B2     0.222844     4B1     0.225526    11A1     0.261796  
       6B2     0.263633     1A2     0.266340    12A1     0.275415  
       5B1     0.321692    13A1     0.373707     7B2     0.388622  
      14A1     0.455455     8B2     0.472859     9B2     0.621025  
      15A1     0.623634     2A2     0.641490    16A1     0.652602  
       6B1     0.653737    17A1     0.719015     3A2     0.732512  
       7B1     0.747210    10B2     0.749533    18A1     0.811403  
      19A1     0.851034     8B1     0.911790     9B1     0.932335  
       4A2     0.937549    11B2     0.940894    20A1     0.941363  
      12B2     0.946125    21A1     0.960347    13B2     1.013684  
      10B1     1.027418    22A1     1.050798    14B2     1.058530  
      11B1     1.135151     5A2     1.187747    23A1     1.192782  
      15B2     1.271948    16B2     1.287965    24A1     1.290108  
      25A1     1.406625     6A2     1.511497    12B1     1.591776  
      26A1     1.664728    27A1     1.830730    17B2     1.833945  
      18B2     1.980869    13B1     2.016181    19B2     2.022746  
      28A1     2.030409     7A2     2.045419    14B1     2.048960  
      29A1     2.101104    20B2     2.133629    30A1     2.164765  
       8A2     2.182923    15B1     2.192227    31A1     2.200551  
      16B1     2.287811    21B2     2.317406     9A2     2.334988  
      32A1     2.370474    33A1     2.417341    34A1     2.492988  
      22B2     2.502283    17B1     2.519165    35A1     2.579678  
      23B2     2.690418    18B1     2.720015    36A1     2.822694  
      10A2     2.889569    24B2     2.909897    25B2     3.668445  
      37A1     3.753584    11A2     4.033254    19B1     4.103021  
      38A1     4.174375    20B1     4.224438    26B2     4.244891  
      21B1     4.283193    27B2     4.293436    39A1     4.384035  
      12A2     4.384141    22B1     4.417997    40A1     4.437631  
      28B2     4.531595    41A1     4.752202    29B2     4.855045  
      13A2     5.151075    30B2     5.166295    31B2     5.251953  
      42A1     5.374326    23B1     5.529652    43A1     5.677378  
      44A1     6.203639    24B1     6.423507    32B2     6.424393  
      14A2     6.448594    45A1     6.452927    25B1     6.459305  
      33B2     6.499594    46A1     6.535867    34B2     6.545409  
      26B1     6.749710    47A1     6.931739    15A2     7.008514  
      48A1     7.010699    27B1     7.037464    35B2     7.070752  
      49A1     7.115409    28B1     7.137435    29B1     7.261757  
      16A2     7.319573    36B2     7.351557    17A2     7.358889  
      50A1     7.361961    51A1     7.552710    52A1     7.899976  
      37B2     7.939474    53A1     8.646133    38B2     8.815860  
      54A1    15.747213  

    Final Occupation by Irrep:
             A1    A2    B1    B2 
    DOCC [     6,    0,    1,    1 ]
    SOCC [     0,    0,    1,    1 ]

  @UHF Final Energy:  -150.87350722594718

   => Energetics <=

    Nuclear Repulsion Energy =             22.1894881772000829
    One-Electron Energy =                -252.1695960036004180
    Two-Electron Energy =                  79.1066006004531630
    Total Energy =                       -150.8735072259471792

  UHF NO Occupations:
  HONO-2 :    6 A1 1.9970753
  HONO-1 :    2 B1 1.0000000
  HONO-0 :    2 B2 1.0000000
  LUNO+0 :    7 A1 0.0029247
  LUNO+1 :    8 A1 0.0016777
  LUNO+2 :    9 A1 0.0000024
  LUNO+3 :   10 A1 0.0000005


Computation Completed


Properties will be evaluated at   0.000000,   0.000000,   0.000000 [a0]

Properties computed using the SCF density matrix

  Nuclear Dipole Moment: [e a0]
     X:     0.0000      Y:     0.0000      Z:    -1.9117

  Electronic Dipole Moment: [e a0]
     X:     0.0000      Y:     0.0000      Z:     2.7475

  Dipole Moment: [e a0]
     X:     0.0000      Y:     0.0000      Z:     0.8358     Total:     0.8358

  Dipole Moment: [D]
     X:     0.0000      Y:     0.0000      Z:     2.1244     Total:     2.1244


*** tstop() called on b1-8.compute.lan at Wed Mar 10 09:39:24 2021
Module time:
	user time   =      36.09 seconds =       0.60 minutes
	system time =       0.94 seconds =       0.02 minutes
	total time  =          3 seconds =       0.05 minutes
Total time:
	user time   =      36.09 seconds =       0.60 minutes
	system time =       0.94 seconds =       0.02 minutes
	total time  =          3 seconds =       0.05 minutes
 MINTS: Wrapper to libmints.
   by Justin Turney

   Calculation information:
      Number of threads:                12
      Number of atoms:                   4
      Number of AO shells:              46
      Number of SO shells:              37
      Number of primitives:             82
      Number of atomic orbitals:       160
      Number of basis functions:       138

      Number of irreps:                  4
      Integral cutoff                 0.00e+00
      Number of functions per irrep: [  54   17   29   38 ]

 OEINTS: Overlap, kinetic, potential, dipole, and quadrupole integrals
         stored in file 35.

      Computing two-electron integrals...done
      Computed 11334721 non-zero two-electron integrals.
        Stored in file 33.


*** tstart() called on b1-8.compute.lan
*** at Wed Mar 10 09:39:26 2021


	Wfn Parameters:
	--------------------
	Wavefunction         = CCSD_T
	Number of irreps     = 4
	Number of MOs        = 138
	Number of active MOs = 136
	AO-Basis             = NONE
	Semicanonical        = false
	Reference            = UHF
	Print Level          = 1

	IRREP	# MOs	# FZDC	# DOCC	# SOCC	# VIRT	# FZVR
	-----	-----	------	------	------	------	------
	 A1	   54	    2	    4	    0	    48	    0
	 A2	   17	    0	    0	    0	    17	    0
	 B1	   29	    0	    1	    1	    27	    0
	 B2	   38	    0	    1	    1	    36	    0
	Transforming integrals...
	IWL integrals will be deleted.
	(OO|OO)...
	Presorting SO-basis two-electron integrals.
	Sorting File: SO Ints (nn|nn) nbuckets = 1
	Transforming the one-electron integrals and constructing Fock matrices
	Starting AA/AB first half-transformation.
	Sorting AA/AB half-transformed integrals.
	Starting BB first half-transformation.
	Sorting BB half-transformed integrals.
	First half integral transformation complete.
	Starting AA second half-transformation.
	Starting AB second half-transformation.
	Starting BB second half-transformation.
	Two-electron integral transformation complete.
	(OO|OV)...
	Starting AA second half-transformation.
	Starting AB second half-transformation.
	Starting BB second half-transformation.
	Two-electron integral transformation complete.
	(OO|VV)...
	Starting AA second half-transformation.
	Starting AB second half-transformation.
	Starting BB second half-transformation.
	Two-electron integral transformation complete.
	(OV|OO)...
	Starting AA/AB first half-transformation.
	Sorting AA/AB half-transformed integrals.
	Starting BB first half-transformation.
	Sorting BB half-transformed integrals.
	First half integral transformation complete.
	Starting AA second half-transformation.
	Starting AB second half-transformation.
	Starting BB second half-transformation.
	Two-electron integral transformation complete.
	(OV|OV)...
	Starting AA second half-transformation.
	Starting AB second half-transformation.
	Starting BB second half-transformation.
	Two-electron integral transformation complete.
	(OV|VV)...
	Starting AA second half-transformation.
	Starting AB second half-transformation.
	Starting BB second half-transformation.
	Two-electron integral transformation complete.
	(VV|OO)...
	Starting AA/AB first half-transformation.
	Sorting AA/AB half-transformed integrals.
	Starting BB first half-transformation.
	Sorting BB half-transformed integrals.
	First half integral transformation complete.
	Starting AA second half-transformation.
	Starting AB second half-transformation.
	Starting BB second half-transformation.
	Two-electron integral transformation complete.
	(VV|OV)...
	Starting AA second half-transformation.
	Starting AB second half-transformation.
	Starting BB second half-transformation.
	Two-electron integral transformation complete.
	(VV|VV)...
	Starting AA second half-transformation.
	Starting AB second half-transformation.
	Starting BB second half-transformation.
	Two-electron integral transformation complete.
	Frozen core energy     =   -125.55985753747656

	Size of irrep 0 of <AB|CD> integrals:      5.040 (MW) /     40.320 (MB)
	Size of irrep 1 of <AB|CD> integrals:      3.197 (MW) /     25.576 (MB)
	Size of irrep 2 of <AB|CD> integrals:      3.640 (MW) /     29.124 (MB)
	Size of irrep 3 of <AB|CD> integrals:      4.783 (MW) /     38.264 (MB)
	Total:                                    16.660 (MW) /    133.283 (MB)

	Size of irrep 0 of <ab|cd> integrals:      5.327 (MW) /     42.615 (MB)
	Size of irrep 1 of <ab|cd> integrals:      3.430 (MW) /     27.439 (MB)
	Size of irrep 2 of <ab|cd> integrals:      3.893 (MW) /     31.142 (MB)
	Size of irrep 3 of <ab|cd> integrals:      5.072 (MW) /     40.572 (MB)
	Total:                                    17.721 (MW) /    141.768 (MB)

	Size of irrep 0 of <Ab|Cd> integrals:     21.912 (MW) /    175.294 (MB)
	Size of irrep 1 of <Ab|Cd> integrals:     13.242 (MW) /    105.939 (MB)
	Size of irrep 2 of <Ab|Cd> integrals:     15.062 (MW) /    120.497 (MB)
	Size of irrep 3 of <Ab|Cd> integrals:     19.705 (MW) /    157.638 (MB)
	Total:                                    69.921 (MW) /    559.368 (MB)

	Size of irrep 0 of <IA|BC> integrals:      1.469 (MW) /     11.748 (MB)
	Size of irrep 1 of <IA|BC> integrals:      0.694 (MW) /      5.550 (MB)
	Size of irrep 2 of <IA|BC> integrals:      0.908 (MW) /      7.266 (MB)
	Size of irrep 3 of <IA|BC> integrals:      1.198 (MW) /      9.588 (MB)
	Total:                                     4.269 (MW) /     34.152 (MB)

	Size of irrep 0 of <ia|bc> integrals:      1.220 (MW) /      9.758 (MB)
	Size of irrep 1 of <ia|bc> integrals:      0.493 (MW) /      3.941 (MB)
	Size of irrep 2 of <ia|bc> integrals:      0.698 (MW) /      5.588 (MB)
	Size of irrep 3 of <ia|bc> integrals:      0.959 (MW) /      7.675 (MB)
	Total:                                     3.370 (MW) /     26.961 (MB)

	Size of irrep 0 of <Ia|Bc> integrals:      1.507 (MW) /     12.058 (MB)
	Size of irrep 1 of <Ia|Bc> integrals:      0.721 (MW) /      5.764 (MB)
	Size of irrep 2 of <Ia|Bc> integrals:      0.939 (MW) /      7.514 (MB)
	Size of irrep 3 of <Ia|Bc> integrals:      1.234 (MW) /      9.872 (MB)
	Total:                                     4.401 (MW) /     35.208 (MB)

	Size of irrep 0 of <iA|bC> integrals:      1.194 (MW) /      9.549 (MB)
	Size of irrep 1 of <iA|bC> integrals:      0.477 (MW) /      3.814 (MB)
	Size of irrep 2 of <iA|bC> integrals:      0.671 (MW) /      5.371 (MB)
	Size of irrep 3 of <iA|bC> integrals:      0.928 (MW) /      7.422 (MB)
	Total:                                     3.270 (MW) /     26.156 (MB)

	Size of irrep 0 of tIjAb amplitudes:       0.094 (MW) /      0.749 (MB)
	Size of irrep 1 of tIjAb amplitudes:       0.015 (MW) /      0.116 (MB)
	Size of irrep 2 of tIjAb amplitudes:       0.047 (MW) /      0.373 (MB)
	Size of irrep 3 of tIjAb amplitudes:       0.053 (MW) /      0.426 (MB)
	Total:                                     0.208 (MW) /      1.664 (MB)

	Nuclear Rep. energy          =     22.18948817720008
	SCF energy                   =   -150.87350722594718
	One-electron energy          =    -83.55548216945041
	Two-electron (AA) energy     =      9.99658641493059
	Two-electron (BB) energy     =      5.31932792115376
	Two-electron (AB) energy     =     20.73642996769386
	Two-electron energy          =     36.05234430377821
	Reference energy             =   -150.87350722594869

*** tstop() called on b1-8.compute.lan at Wed Mar 10 09:39:46 2021
Module time:
	user time   =     147.04 seconds =       2.45 minutes
	system time =       7.61 seconds =       0.13 minutes
	total time  =         20 seconds =       0.33 minutes
Total time:
	user time   =     188.44 seconds =       3.14 minutes
	system time =       8.83 seconds =       0.15 minutes
	total time  =         25 seconds =       0.42 minutes
            **************************
            *                        *
            *        CCENERGY        *
            *                        *
            **************************

    Nuclear Rep. energy (wfn)     =   22.189488177200083
    SCF energy          (wfn)     = -150.873507225947179
    Reference energy    (file100) = -150.873507225948686

    Input parameters:
    -----------------
    Wave function   =     CCSD_T
    Reference wfn   =     UHF
    Brueckner       =     No
    Memory (Mbytes) =     4000.0
    Maxiter         =     50
    R_Convergence   =     1.0e-10
    E_Convergence   =     1.0e-10
    Restart         =     Yes
    DIIS            =     Yes
    AO Basis        =     NONE
    ABCD            =     NEW
    Cache Level     =     2
    Cache Type      =     LRU
    Print Level     =     1
    Num. of threads =     12
    # Amps to Print =     10
    Print MP2 Amps? =     No
    Analyze T2 Amps =     No
    Print Pair Ener =     No
    Local CC        =     No
    SCS-MP2         =     False
    SCSN-MP2        =     False
    SCS-CCSD        =     False

MP2 correlation energy -0.4157783166675924
                Solving CC Amplitude Equations
                ------------------------------
  Iter             Energy              RMS        T1Diag      D1Diag    New D1Diag    D2Diag
  ----     ---------------------    ---------   ----------  ----------  ----------   --------
     0        -0.415778316667592    0.000e+00    0.000000    0.000000    0.000000    0.000000
     1        -0.426645135526822    5.639e-02    0.010368    0.000000    0.000000    0.000000
     2        -0.434736725272674    1.678e-02    0.010876    0.000000    0.000000    0.000000
     3        -0.436832057859634    8.417e-03    0.012696    0.000000    0.000000    0.000000
     4        -0.436708011338648    2.491e-03    0.013043    0.000000    0.000000    0.000000
     5        -0.436695328399227    1.266e-03    0.013187    0.000000    0.000000    0.000000
     6        -0.436720902976960    4.992e-04    0.013202    0.000000    0.000000    0.000000
     7        -0.436725203610775    2.309e-04    0.013193    0.000000    0.000000    0.000000
     8        -0.436725909915998    6.888e-05    0.013187    0.000000    0.000000    0.000000
     9        -0.436727147586152    2.956e-05    0.013187    0.000000    0.000000    0.000000
    10        -0.436725935897430    1.168e-05    0.013187    0.000000    0.000000    0.000000
    11        -0.436726041801672    6.168e-06    0.013187    0.000000    0.000000    0.000000
    12        -0.436726000763487    3.084e-06    0.013187    0.000000    0.000000    0.000000
    13        -0.436726000022778    1.602e-06    0.013187    0.000000    0.000000    0.000000
    14        -0.436726033395058    7.038e-07    0.013187    0.000000    0.000000    0.000000
    15        -0.436726032613946    1.775e-07    0.013187    0.000000    0.000000    0.000000
    16        -0.436726032558292    1.081e-07    0.013187    0.000000    0.000000    0.000000
    17        -0.436726033420343    3.040e-08    0.013187    0.000000    0.000000    0.000000
    18        -0.436726033014638    1.347e-08    0.013187    0.000000    0.000000    0.000000
    19        -0.436726032802139    4.150e-09    0.013187    0.000000    0.000000    0.000000
    20        -0.436726032793640    1.816e-09    0.013187    0.000000    0.000000    0.000000
    21        -0.436726032785238    7.808e-10    0.013187    0.000000    0.000000    0.000000
    22        -0.436726032786356    3.321e-10    0.013187    0.000000    0.000000    0.000000
    23        -0.436726032790517    1.583e-10    0.013187    0.000000    0.000000    0.000000
    24        -0.436726032789852    8.080e-11    0.013187    0.000000    0.000000    0.000000

    Iterations converged.


    Largest TIA Amplitudes:
              5  67        -0.0137466803
              5  65        -0.0122288097
              2   2         0.0097589530
              6  93        -0.0086883076
              5  66        -0.0086455363
              4  65        -0.0083311316
              3   6        -0.0074895276
              2   6        -0.0062171711
              3   1         0.0059477528
              4  70        -0.0053403700

    Largest Tia Amplitudes:
              4  68        -0.0138084163
              4  66        -0.0131164820
              2   6        -0.0089441204
              4  65        -0.0084418691
              2   2         0.0069242724
              3   2        -0.0054473606
              1  11        -0.0051899419
              5 109         0.0050570051
              2   1         0.0047600250
              4  82         0.0042869682

    Largest TIJAB Amplitudes:
      6   4 100  70         0.0168952932
      6   4  55  22        -0.0106596611
      4   2  70  12         0.0105914379
      6   2 100  12        -0.0105581920
      4   2  70  11        -0.0094523122
      6   2 100  11         0.0091249498
      7   5  50  10        -0.0089121068
      6   4 115  81         0.0085870768
      7   3  97   6        -0.0085308250
      6   4 100  81        -0.0084894068

    Largest Tijab Amplitudes:
      5   4  50  10        -0.0087399942
      5   2  99   6        -0.0081645936
      5   2 100   8        -0.0077973890
      3   1  78  65        -0.0077129850
      5   4  53  10        -0.0074809287
      5   4  99  68        -0.0074722642
      4   2  70  10         0.0074239972
      5   4  99  71        -0.0074003337
      3   1  69  65        -0.0072939285
      4   2  68   6        -0.0070823696

    Largest TIjAb Amplitudes:
      7   5  97  99        -0.0193639906
      4   1  22  65         0.0163994413
      2   1  77  65         0.0161332689
      6   1  55  65         0.0156621595
      4   3  70  12        -0.0152298195
      7   5  98 100        -0.0152219234
      6   3 100  12         0.0150275705
      7   5 103  99        -0.0150160704
      4   1  70  18        -0.0149408226
      6   1 100  18         0.0148007053

    SCF energy       (wfn)                    = -150.873507225947179
    Reference energy (file100)                = -150.873507225948686

    Opposite-spin MP2 correlation energy      =   -0.314168949720175
    Same-spin MP2 correlation energy          =   -0.101609366947417
    MP2 correlation energy                    =   -0.415778316667592
      * MP2 total energy                      = -151.289285542616284

    Opposite-spin CCSD correlation energy     =   -0.341839523805445
    Same-spin CCSD correlation energy         =   -0.094886508984408
    CCSD correlation energy                   =   -0.436726032789852
      * CCSD total energy                     = -151.310233258738549

            **************************
            *                        *
            *        CCTRIPLES       *
            *                        *
            **************************


    Wave function   =    CCSD_T
    Reference wfn   =      UHF

    Nuclear Rep. energy (wfn)                =   22.189488177200083
    SCF energy          (wfn)                = -150.873507225947179
    Reference energy    (file100)            = -150.873507225948686
    CCSD energy         (file100)            =   -0.436726032789852
    Total CCSD energy   (file100)            = -151.310233258738549

    Number of ijk index combinations:
    Spin Case AAA:                                  56
    Spin Case BBB:                                  20
    Spin Case AAB:                                 168
    Spin Case ABB:                                 120
    AAA (T) energy                             =   -0.000393594370214
    BBB (T) energy                             =   -0.000198571748442
    AAB (T) energy                             =   -0.006682575460983
    ABB (T) energy                             =   -0.004953412608592
    (T) energy                                   =   -0.012228154188231
      * CCSD(T) total energy                     = -151.322461412926771

Stephenergy -151.32246141292677
    Psi4 stopped on: Wednesday, 10 March 2021 09:40AM
    Psi4 wall time for execution: 0:01:10.33

*** Psi4 exiting successfully. Buy a developer a beer!
