
Host: ss-sub1.gacrc.uga.edu

Timers On : Mon Mar  8 09:39:25 2021
Timers Off: Mon Mar  8 09:50:15 2021

Wall Time:      649.54 seconds

                                                       Time (seconds)
Module                                       User      System        Wall        Calls

--------------------------------------------------------------------------------------

**************************************************************************************
