
    -----------------------------------------------------------------------
          Psi4: An Open-Source Ab Initio Electronic Structure Package
                               Psi4 1.3.2 release

                         Git: Rev {HEAD} ecbda83 


    R. M. Parrish, L. A. Burns, D. G. A. Smith, A. C. Simmonett,
    A. E. DePrince III, E. G. Hohenstein, U. Bozkaya, A. Yu. Sokolov,
    R. Di Remigio, R. M. Richard, J. F. Gonthier, A. M. James,
    H. R. McAlexander, A. Kumar, M. Saitow, X. Wang, B. P. Pritchard,
    P. Verma, H. F. Schaefer III, K. Patkowski, R. A. King, E. F. Valeev,
    F. A. Evangelista, J. M. Turney, T. D. Crawford, and C. D. Sherrill,
    J. Chem. Theory Comput. 13(7) pp 3185--3197 (2017).
    (doi: 10.1021/acs.jctc.7b00174)


                         Additional Contributions by
    P. Kraus, H. Kruse, M. H. Lechner, M. C. Schieber, R. A. Shaw,
    A. Alenaizan, R. Galvelis, Z. L. Glick, S. Lehtola, and J. P. Misiewicz

    -----------------------------------------------------------------------


    Psi4 started on: Tuesday, 09 March 2021 03:19PM

    Process ID: 12338
    Host:       c1-9.compute.lan
    PSIDATADIR: /apps/gb/PSI4/1.3.2/share/psi4
    Memory:     500.0 MiB
    Threads:    12
    
  ==> Input File <==

--------------------------------------------------------------------------
memory 4 GB

molecule  {
0 3
O   -1.506400547100   -0.018463005000    0.000000000000 
H   -0.545692666800    0.063290691600    0.000000000000          
H   -1.821402556300    0.889504636700    0.000000000000
O    1.655549065600   -0.041571762600    0.000000000000
}
set {
basis aug-cc-pvtz
reference uhf
e_convergence 10
scf_type pk
freeze_core true
}

set ccenergy {
e_convergence 10
r_convergence 10
}

e = energy('ccsd(t)')

print_out('Stephenergy {}'.format(e))

--------------------------------------------------------------------------

  Memory set to   3.725 GiB by Python driver.

*** tstart() called on c1-9.compute.lan
*** at Tue Mar  9 15:19:02 2021

   => Loading Basis Set <=

    Name: AUG-CC-PVTZ
    Role: ORBITAL
    Keyword: BASIS
    atoms 1, 4 entry O          line   327 file /apps/gb/PSI4/1.3.2/share/psi4/basis/aug-cc-pvtz.gbs 
    atoms 2-3  entry H          line    36 file /apps/gb/PSI4/1.3.2/share/psi4/basis/aug-cc-pvtz.gbs 


         ---------------------------------------------------------
                                   SCF
               by Justin Turney, Rob Parrish, Andy Simmonett
                          and Daniel G. A. Smith
                              UHF Reference
                       12 Threads,   3814 MiB Core
         ---------------------------------------------------------

  ==> Geometry <==

    Molecular point group: cs
    Full point group: Cs

    Geometry (in Angstrom), charge = 0, multiplicity = 3:

       Center              X                  Y                   Z               Mass       
    ------------   -----------------  -----------------  -----------------  -----------------
         O           -1.506400547086    -0.018463005014     0.000000000000    15.994914619570
         H           -0.545692666786     0.063290691586     0.000000000000     1.007825032230
         H           -1.821402556286     0.889504636686     0.000000000000     1.007825032230
         O            1.655549065614    -0.041571762614     0.000000000000    15.994914619570

  Running in cs symmetry.

  Rotational constants: A =     21.90726  B =      0.20106  C =      0.19923 [cm^-1]
  Rotational constants: A = 656763.05009  B =   6027.57450  C =   5972.75831 [MHz]
  Nuclear repulsion =   22.951579772375606

  Charge       = 0
  Multiplicity = 3
  Electrons    = 18
  Nalpha       = 10
  Nbeta        = 8

  ==> Algorithm <==

  SCF Algorithm Type is PK.
  DIIS enabled.
  MOM disabled.
  Fractional occupation disabled.
  Guess Type is SAD.
  Energy threshold   = 1.00e-10
  Density threshold  = 1.00e-08
  Integral threshold = 0.00e+00

  ==> Primary Basis <==

  Basis Set: AUG-CC-PVTZ
    Blend: AUG-CC-PVTZ
    Number of shells: 46
    Number of basis function: 138
    Number of Cartesian functions: 160
    Spherical Harmonics?: true
    Max angular momentum: 3

  ==> Pre-Iterations <==

   -------------------------------------------------------
    Irrep   Nso     Nmo     Nalpha   Nbeta   Ndocc  Nsocc
   -------------------------------------------------------
     A'        92      92       0       0       0       0
     A"        46      46       0       0       0       0
   -------------------------------------------------------
    Total     138     138      10       8       8       2
   -------------------------------------------------------

  ==> Integral Setup <==

  Using in-core PK algorithm.
   Calculation information:
      Number of atoms:                   4
      Number of AO shells:              46
      Number of primitives:             82
      Number of atomic orbitals:       160
      Number of basis functions:       138

      Integral cutoff                 1.00e-12
      Number of threads:                12

  Performing in-core PK
  Using 91996872 doubles for integral storage.
  We computed 905242 shell quartets total.
  Whereas there are 584821 unique shell quartets.
    54.79 percent of shell quartets recomputed by reordering.

  ==> DiskJK: Disk-Based J/K Matrices <==

    J tasked:                  Yes
    K tasked:                  Yes
    wK tasked:                  No
    Memory [MiB]:             2861
    Schwarz Cutoff:          1E-12

    OpenMP threads:             12

  Minimum eigenvalue in the overlap matrix is 2.9808098747E-04.
  Using Symmetric Orthogonalization.

  SCF Guess: Superposition of Atomic Densities via on-the-fly atomic UHF.

  ==> Iterations <==

                        Total Energy        Delta E     RMS |[F,P]|

   @UHF iter SAD:  -149.40211763234049   -1.49402e+02   0.00000e+00 
   @UHF iter   1:  -150.76315885792155   -1.36104e+00   5.05737e-03 DIIS
   @UHF iter   2:  -150.83771827521923   -7.45594e-02   3.28603e-03 DIIS
   @UHF iter   3:  -150.87303150391318   -3.53132e-02   3.93857e-04 DIIS
   @UHF iter   4:  -150.87414780495408   -1.11630e-03   1.30923e-04 DIIS
   @UHF iter   5:  -150.87427469421095   -1.26889e-04   5.11313e-05 DIIS
   @UHF iter   6:  -150.87430863171645   -3.39375e-05   1.51246e-05 DIIS
   @UHF iter   7:  -150.87431209451023   -3.46279e-06   4.66447e-06 DIIS
   @UHF iter   8:  -150.87431262293677   -5.28427e-07   3.21730e-06 DIIS
   @UHF iter   9:  -150.87431299740530   -3.74469e-07   3.07308e-06 DIIS
   @UHF iter  10:  -150.87431347139216   -4.73987e-07   3.03193e-06 DIIS
   @UHF iter  11:  -150.87431533363912   -1.86225e-06   2.91304e-06 DIIS
   @UHF iter  12:  -150.87432123171192   -5.89807e-06   2.56953e-06 DIIS
   @UHF iter  13:  -150.87432732042544   -6.08871e-06   2.14647e-06 DIIS
   @UHF iter  14:  -150.87433215939518   -4.83897e-06   1.93364e-06 DIIS
   @UHF iter  15:  -150.87433297221196   -8.12817e-07   1.16538e-06 DIIS
   @UHF iter  16:  -150.87433546365008   -2.49144e-06   3.94756e-06 DIIS
   @UHF iter  17:  -150.87433551871831   -5.50682e-08   1.93967e-06 DIIS
   @UHF iter  18:  -150.87433555240159   -3.36833e-08   8.54314e-07 DIIS
   @UHF iter  19:  -150.87433555628297   -3.88138e-09   1.61929e-07 DIIS
   @UHF iter  20:  -150.87433555636397   -8.10019e-11   1.41040e-07 DIIS
   @UHF iter  21:  -150.87433555646231   -9.83391e-11   5.89275e-09 DIIS
  Energy and wave function converged.


  ==> Post-Iterations <==

   @Spin Contamination Metric:   9.367324675E-03
   @S^2 Expected:                2.000000000E+00
   @S^2 Observed:                2.009367325E+00
   @S   Expected:                1.000000000E+00
   @S   Observed:                1.000000000E+00

    Orbital Energies [Eh]
    ---------------------

    Alpha Occupied:                                                       

       1Ap   -20.734699     2Ap   -20.558359     3Ap    -1.444085  
       4Ap    -1.342354     5Ap    -0.734643     1App   -0.734419  
       6Ap    -0.709447     7Ap    -0.636318     8Ap    -0.574528  
       2App   -0.501421  

    Alpha Virtual:                                                        

       9Ap     0.034472    10Ap     0.053386    11Ap     0.127519  
       3App    0.131993    12Ap     0.148090    13Ap     0.160988  
      14Ap     0.183729     4App    0.186755    15Ap     0.213530  
      16Ap     0.242039    17Ap     0.268909     5App    0.284356  
      18Ap     0.298168     6App    0.322684    19Ap     0.369912  
      20Ap     0.398771    21Ap     0.460624    22Ap     0.563629  
       7App    0.600717    23Ap     0.608595    24Ap     0.637369  
      25Ap     0.671973    26Ap     0.713595     8App    0.714364  
       9App    0.735153    10App    0.748313    27Ap     0.764766  
      28Ap     0.807598    11App    0.825088    29Ap     0.843975  
      30Ap     0.874155    12App    0.886766    31Ap     0.925223  
      13App    0.944514    32Ap     0.945803    33Ap     0.953863  
      14App    0.979805    34Ap     0.982783    35Ap     1.044263  
      36Ap     1.128874    15App    1.168899    37Ap     1.169242  
      38Ap     1.194206    39Ap     1.271060    16App    1.279324  
      40Ap     1.325419    17App    1.528517    41Ap     1.569260  
      18App    1.600414    42Ap     1.700812    43Ap     1.817254  
      44Ap     1.833920    19App    1.976057    45Ap     1.976066  
      46Ap     1.987181    20App    2.011911    47Ap     2.017400  
      21App    2.050799    48Ap     2.062600    22App    2.125946  
      49Ap     2.164385    50Ap     2.176788    23App    2.215414  
      24App    2.299150    51Ap     2.315708    52Ap     2.329482  
      53Ap     2.417119    25App    2.453012    54Ap     2.461906  
      55Ap     2.522720    26App    2.526891    56Ap     2.636472  
      57Ap     2.696899    27App    2.729098    58Ap     2.749793  
      59Ap     2.860073    60Ap     2.937043    28App    2.946597  
      61Ap     3.699841    62Ap     3.900039    29App    4.037065  
      30App    4.060172    63Ap     4.074178    31App    4.176908  
      64Ap     4.204874    65Ap     4.272555    32App    4.299008  
      66Ap     4.390606    33App    4.392452    67Ap     4.436589  
      34App    4.436829    68Ap     4.588140    69Ap     4.781985  
      70Ap     4.965218    35App    5.154125    71Ap     5.177204  
      72Ap     5.303210    73Ap     5.380454    36App    5.525824  
      74Ap     5.689782    75Ap     6.194926    37App    6.310603  
      76Ap     6.310635    38App    6.374647    77Ap     6.377414  
      39App    6.525236    78Ap     6.525760    79Ap     6.562184  
      80Ap     6.641610    40App    6.728762    81Ap     6.812725  
      41App    6.818984    82Ap     6.917685    42App    6.935636  
      83Ap     6.966516    84Ap     7.051222    43App    7.148144  
      44App    7.274395    85Ap     7.321525    45App    7.326604  
      86Ap     7.362110    46App    7.443335    87Ap     7.655047  
      88Ap     7.944369    89Ap     7.967005    90Ap     8.809488  
      91Ap     9.478790    92Ap    16.451728  

    Beta Occupied:                                                        

       1Ap   -20.655912     2Ap   -20.558503     3Ap    -1.342986  
       4Ap    -1.101637     5Ap    -0.708357     6Ap    -0.580846  
       7Ap    -0.541969     1App   -0.501475  

    Beta Virtual:                                                         

       8Ap     0.034344     9Ap     0.047425     2App    0.048038  
      10Ap     0.056242    11Ap     0.144403    12Ap     0.151574  
       3App    0.160787    13Ap     0.179174    14Ap     0.208915  
      15Ap     0.221439     4App    0.226275    16Ap     0.251524  
      17Ap     0.270626     5App    0.284625    18Ap     0.300353  
       6App    0.326693    19Ap     0.373877    20Ap     0.410042  
      21Ap     0.461516    22Ap     0.567009     7App    0.633058  
      23Ap     0.636914    24Ap     0.641931    25Ap     0.675631  
      26Ap     0.714144     8App    0.727276     9App    0.737198  
      10App    0.750012    27Ap     0.784563    28Ap     0.819534  
      29Ap     0.853199    11App    0.868115    30Ap     0.920138  
      12App    0.940127    31Ap     0.944194    13App    0.948972  
      32Ap     0.954117    33Ap     0.971585    34Ap     1.017277  
      14App    1.023139    35Ap     1.048240    36Ap     1.157896  
      15App    1.172388    37Ap     1.176149    38Ap     1.218145  
      39Ap     1.273680    16App    1.290120    40Ap     1.335280  
      17App    1.529327    41Ap     1.573526    18App    1.602029  
      42Ap     1.727479    43Ap     1.823124    44Ap     1.842955  
      45Ap     1.994568    19App    2.014105    46Ap     2.014161  
      20App    2.055343    47Ap     2.067323    21App    2.174608  
      48Ap     2.178150    22App    2.179916    49Ap     2.204961  
      50Ap     2.243167    23App    2.251963    24App    2.301656  
      51Ap     2.323415    52Ap     2.348771    53Ap     2.422689  
      25App    2.455256    54Ap     2.462674    55Ap     2.529430  
      26App    2.535747    56Ap     2.643385    57Ap     2.708058  
      27App    2.730409    58Ap     2.758930    59Ap     2.862992  
      60Ap     2.940586    28App    2.947267    61Ap     3.700409  
      62Ap     3.902956    29App    4.037898    30App    4.147526  
      63Ap     4.183220    64Ap     4.243186    31App    4.259422  
      65Ap     4.291775    32App    4.299149    33App    4.392574  
      66Ap     4.401342    34App    4.437992    67Ap     4.473347  
      68Ap     4.589602    69Ap     4.783298    70Ap     4.967523  
      35App    5.154117    71Ap     5.177691    72Ap     5.303467  
      73Ap     5.381655    36App    5.525918    74Ap     5.690312  
      75Ap     6.195637    37App    6.419526    76Ap     6.419533  
      38App    6.449903    77Ap     6.452659    78Ap     6.534096  
      39App    6.579664    79Ap     6.609989    80Ap     6.687035  
      40App    6.733749    81Ap     6.919552    41App    7.004634  
      82Ap     7.005779    42App    7.044140    83Ap     7.071900  
      84Ap     7.131087    43App    7.150616    44App    7.274799  
      85Ap     7.321770    45App    7.327392    86Ap     7.362660  
      46App    7.443780    87Ap     7.656106    88Ap     7.944941  
      89Ap     7.967300    90Ap     8.811701    91Ap     9.553362  
      92Ap    16.452210  

    Final Occupation by Irrep:
             Ap   App 
    DOCC [     7,    1 ]
    SOCC [     1,    1 ]

  @UHF Final Energy:  -150.87433555646231

   => Energetics <=

    Nuclear Repulsion Energy =             22.9515797723756059
    One-Electron Energy =                -253.6898766938488450
    Two-Electron Energy =                  79.8639613650109368
    Total Energy =                       -150.8743355564623130

  UHF NO Occupations:
  HONO-2 :    7 Ap 1.9970274
  HONO-1 :    8 Ap 1.0000000
  HONO-0 :    2App 1.0000000
  LUNO+0 :    9 Ap 0.0029726
  LUNO+1 :   10 Ap 0.0017118
  LUNO+2 :   11 Ap 0.0000024
  LUNO+3 :   12 Ap 0.0000020


Computation Completed


Properties will be evaluated at   0.000000,   0.000000,   0.000000 [a0]

Properties computed using the SCF density matrix

  Nuclear Dipole Moment: [e a0]
     X:    -2.2184      Y:     0.8929      Z:     0.0000

  Electronic Dipole Moment: [e a0]
     X:     2.7435      Y:    -0.2475      Z:     0.0000

  Dipole Moment: [e a0]
     X:     0.5252      Y:     0.6454      Z:     0.0000     Total:     0.8321

  Dipole Moment: [D]
     X:     1.3349      Y:     1.6405      Z:     0.0000     Total:     2.1150


*** tstop() called on c1-9.compute.lan at Tue Mar  9 15:19:10 2021
Module time:
	user time   =      64.29 seconds =       1.07 minutes
	system time =       4.34 seconds =       0.07 minutes
	total time  =          8 seconds =       0.13 minutes
Total time:
	user time   =      64.29 seconds =       1.07 minutes
	system time =       4.34 seconds =       0.07 minutes
	total time  =          8 seconds =       0.13 minutes
 MINTS: Wrapper to libmints.
   by Justin Turney

   Calculation information:
      Number of threads:                12
      Number of atoms:                   4
      Number of AO shells:              46
      Number of SO shells:              46
      Number of primitives:             82
      Number of atomic orbitals:       160
      Number of basis functions:       138

      Number of irreps:                  2
      Integral cutoff                 0.00e+00
      Number of functions per irrep: [  92   46 ]

 OEINTS: Overlap, kinetic, potential, dipole, and quadrupole integrals
         stored in file 35.

      Computing two-electron integrals...done
      Computed 22924355 non-zero two-electron integrals.
        Stored in file 33.


*** tstart() called on c1-9.compute.lan
*** at Tue Mar  9 15:19:13 2021


	Wfn Parameters:
	--------------------
	Wavefunction         = CCSD_T
	Number of irreps     = 2
	Number of MOs        = 138
	Number of active MOs = 136
	AO-Basis             = NONE
	Semicanonical        = false
	Reference            = UHF
	Print Level          = 1

	IRREP	# MOs	# FZDC	# DOCC	# SOCC	# VIRT	# FZVR
	-----	-----	------	------	------	------	------
	 Ap	   92	    2	    5	    1	    84	    0
	 App	   46	    0	    1	    1	    44	    0
	Transforming integrals...
	IWL integrals will be deleted.
	(OO|OO)...
	Presorting SO-basis two-electron integrals.
	Sorting File: SO Ints (nn|nn) nbuckets = 1
	Transforming the one-electron integrals and constructing Fock matrices
	Starting AA/AB first half-transformation.
	Sorting AA/AB half-transformed integrals.
	Starting BB first half-transformation.
	Sorting BB half-transformed integrals.
	First half integral transformation complete.
	Starting AA second half-transformation.
	Starting AB second half-transformation.
	Starting BB second half-transformation.
	Two-electron integral transformation complete.
	(OO|OV)...
	Starting AA second half-transformation.
	Starting AB second half-transformation.
	Starting BB second half-transformation.
	Two-electron integral transformation complete.
	(OO|VV)...
	Starting AA second half-transformation.
	Starting AB second half-transformation.
	Starting BB second half-transformation.
	Two-electron integral transformation complete.
	(OV|OO)...
	Starting AA/AB first half-transformation.
	Sorting AA/AB half-transformed integrals.
	Starting BB first half-transformation.
	Sorting BB half-transformed integrals.
	First half integral transformation complete.
	Starting AA second half-transformation.
	Starting AB second half-transformation.
	Starting BB second half-transformation.
	Two-electron integral transformation complete.
	(OV|OV)...
	Starting AA second half-transformation.
	Starting AB second half-transformation.
	Starting BB second half-transformation.
	Two-electron integral transformation complete.
	(OV|VV)...
	Starting AA second half-transformation.
	Starting AB second half-transformation.
	Starting BB second half-transformation.
	Two-electron integral transformation complete.
	(VV|OO)...
	Starting AA/AB first half-transformation.
	Sorting AA/AB half-transformed integrals.
	Starting BB first half-transformation.
	Sorting BB half-transformed integrals.
	First half integral transformation complete.
	Starting AA second half-transformation.
	Starting AB second half-transformation.
	Starting BB second half-transformation.
	Two-electron integral transformation complete.
	(VV|OV)...
	Starting AA second half-transformation.
	Starting AB second half-transformation.
	Starting BB second half-transformation.
	Two-electron integral transformation complete.
	(VV|VV)...
	Starting AA second half-transformation.
	Starting AB second half-transformation.
	Starting BB second half-transformation.
	Two-electron integral transformation complete.
	Frozen core energy     =   -125.87006025077785

	Size of irrep 0 of <AB|CD> integrals:     19.643 (MW) /    157.141 (MB)
	Size of irrep 1 of <AB|CD> integrals:     13.660 (MW) /    109.283 (MB)
	Total:                                    33.303 (MW) /    266.424 (MB)

	Size of irrep 0 of <ab|cd> integrals:     20.794 (MW) /    166.349 (MB)
	Size of irrep 1 of <ab|cd> integrals:     14.631 (MW) /    117.045 (MB)
	Total:                                    35.424 (MW) /    283.394 (MB)

	Size of irrep 0 of <Ab|Cd> integrals:     83.174 (MW) /    665.395 (MB)
	Size of irrep 1 of <Ab|Cd> integrals:     56.550 (MW) /    452.403 (MB)
	Total:                                   139.725 (MW) /   1117.798 (MB)

	Size of irrep 0 of <IA|BC> integrals:      5.323 (MW) /     42.586 (MB)
	Size of irrep 1 of <IA|BC> integrals:      3.193 (MW) /     25.547 (MB)
	Total:                                     8.517 (MW) /     68.133 (MB)

	Size of irrep 0 of <ia|bc> integrals:      4.348 (MW) /     34.780 (MB)
	Size of irrep 1 of <ia|bc> integrals:      2.372 (MW) /     18.972 (MB)
	Total:                                     6.719 (MW) /     53.752 (MB)

	Size of irrep 0 of <Ia|Bc> integrals:      5.472 (MW) /     43.776 (MB)
	Size of irrep 1 of <Ia|Bc> integrals:      3.309 (MW) /     26.470 (MB)
	Total:                                     8.781 (MW) /     70.246 (MB)

	Size of irrep 0 of <iA|bC> integrals:      4.232 (MW) /     33.853 (MB)
	Size of irrep 1 of <iA|bC> integrals:      2.286 (MW) /     18.289 (MB)
	Total:                                     6.518 (MW) /     52.142 (MB)

	Size of irrep 0 of tIjAb amplitudes:       0.292 (MW) /      2.335 (MB)
	Size of irrep 1 of tIjAb amplitudes:       0.120 (MW) /      0.963 (MB)
	Total:                                     0.412 (MW) /      3.297 (MB)

	Nuclear Rep. energy          =     22.95157977237561
	SCF energy                   =   -150.87433555646231
	One-electron energy          =    -84.45723094771739
	Two-electron (AA) energy     =     10.14443059981604
	Two-electron (BB) energy     =      5.39713848682906
	Two-electron (AB) energy     =     20.95980678301078
	Two-electron energy          =     36.50137586965587
	Reference energy             =   -150.87433555646376

*** tstop() called on c1-9.compute.lan at Tue Mar  9 15:20:08 2021
Module time:
	user time   =     163.61 seconds =       2.73 minutes
	system time =      32.88 seconds =       0.55 minutes
	total time  =         55 seconds =       0.92 minutes
Total time:
	user time   =     234.24 seconds =       3.90 minutes
	system time =      38.09 seconds =       0.63 minutes
	total time  =         66 seconds =       1.10 minutes
            **************************
            *                        *
            *        CCENERGY        *
            *                        *
            **************************

    Nuclear Rep. energy (wfn)     =   22.951579772375606
    SCF energy          (wfn)     = -150.874335556462313
    Reference energy    (file100) = -150.874335556463762

    Input parameters:
    -----------------
    Wave function   =     CCSD_T
    Reference wfn   =     UHF
    Brueckner       =     No
    Memory (Mbytes) =     4000.0
    Maxiter         =     50
    R_Convergence   =     1.0e-10
    E_Convergence   =     1.0e-10
    Restart         =     Yes
    DIIS            =     Yes
    AO Basis        =     NONE
    ABCD            =     NEW
    Cache Level     =     2
    Cache Type      =     LRU
    Print Level     =     1
    Num. of threads =     12
    # Amps to Print =     10
    Print MP2 Amps? =     No
    Analyze T2 Amps =     No
    Print Pair Ener =     No
    Local CC        =     No
    SCS-MP2         =     False
    SCSN-MP2        =     False
    SCS-CCSD        =     False

MP2 correlation energy -0.4167122797094768
                Solving CC Amplitude Equations
                ------------------------------
  Iter             Energy              RMS        T1Diag      D1Diag    New D1Diag    D2Diag
  ----     ---------------------    ---------   ----------  ----------  ----------   --------
     0        -0.416712279709477    0.000e+00    0.000000    0.000000    0.000000    0.000000
     1        -0.427414031543265    5.692e-02    0.010563    0.000000    0.000000    0.000000
     2        -0.435512270228817    1.690e-02    0.011047    0.000000    0.000000    0.000000
     3        -0.437633109239898    8.590e-03    0.012923    0.000000    0.000000    0.000000
     4        -0.437507689611455    2.538e-03    0.013293    0.000000    0.000000    0.000000
     5        -0.437492524523131    1.332e-03    0.013452    0.000000    0.000000    0.000000
     6        -0.437519963282995    5.181e-04    0.013476    0.000000    0.000000    0.000000
     7        -0.437524762038294    2.716e-04    0.013471    0.000000    0.000000    0.000000
     8        -0.437525324635252    1.003e-04    0.013467    0.000000    0.000000    0.000000
     9        -0.437526739910114    7.316e-05    0.013468    0.000000    0.000000    0.000000
    10        -0.437525125279650    6.155e-05    0.013469    0.000000    0.000000    0.000000
    11        -0.437525276539875    5.812e-05    0.013470    0.000000    0.000000    0.000000
    12        -0.437525044103023    5.627e-05    0.013472    0.000000    0.000000    0.000000
    13        -0.437525043471303    5.525e-05    0.013475    0.000000    0.000000    0.000000
    14        -0.437526084018644    5.375e-05    0.013487    0.000000    0.000000    0.000000
    15        -0.437526446439441    4.846e-05    0.013544    0.000000    0.000000    0.000000
    16        -0.437526205971810    3.361e-05    0.013670    0.000000    0.000000    0.000000
    17        -0.437525875973997    1.654e-05    0.013739    0.000000    0.000000    0.000000
    18        -0.437525729215345    7.773e-06    0.013757    0.000000    0.000000    0.000000
    19        -0.437525978354114    3.443e-06    0.013762    0.000000    0.000000    0.000000
    20        -0.437526094427460    1.535e-06    0.013763    0.000000    0.000000    0.000000
    21        -0.437526102267765    6.187e-07    0.013763    0.000000    0.000000    0.000000
    22        -0.437526103783425    2.945e-07    0.013763    0.000000    0.000000    0.000000
    23        -0.437526102779922    1.525e-07    0.013763    0.000000    0.000000    0.000000
    24        -0.437526101854642    6.161e-08    0.013763    0.000000    0.000000    0.000000
    25        -0.437526102816231    3.204e-08    0.013763    0.000000    0.000000    0.000000
    26        -0.437526103284605    2.393e-08    0.013763    0.000000    0.000000    0.000000
    27        -0.437526103439112    2.227e-08    0.013763    0.000000    0.000000    0.000000
    28        -0.437526103402166    2.161e-08    0.013763    0.000000    0.000000    0.000000
    29        -0.437526103273754    2.112e-08    0.013763    0.000000    0.000000    0.000000
    30        -0.437526103035960    2.046e-08    0.013763    0.000000    0.000000    0.000000
    31        -0.437526103096623    1.845e-08    0.013763    0.000000    0.000000    0.000000
    32        -0.437526103416641    1.140e-08    0.013763    0.000000    0.000000    0.000000
    33        -0.437526103537333    5.211e-09    0.013763    0.000000    0.000000    0.000000
    34        -0.437526103609168    2.147e-09    0.013763    0.000000    0.000000    0.000000
    35        -0.437526103617677    8.066e-10    0.013763    0.000000    0.000000    0.000000
    36        -0.437526103618528    3.334e-10    0.013763    0.000000    0.000000    0.000000
    37        -0.437526103616781    1.419e-10    0.013763    0.000000    0.000000    0.000000
    38        -0.437526103618457    6.707e-11    0.013763    0.000000    0.000000    0.000000

    Iterations converged.


    Largest TIA Amplitudes:
              7  87        -0.0123499789
              7  84        -0.0117041718
              7  85        -0.0093835138
              4   3         0.0092014034
              6  84        -0.0080869218
              4  10         0.0077120999
              5   9        -0.0072506692
              2   2         0.0069904288
              5   2        -0.0069669716
              7  86        -0.0060669493

    Largest Tia Amplitudes:
              5  86        -0.0122068244
              5  89        -0.0119027241
              5  85        -0.0102166590
              4   1        -0.0088033106
              3   3         0.0085140591
              3  11         0.0070033788
              5  88        -0.0064038120
              3  10        -0.0063210654
              5  87        -0.0060148217
              4   4        -0.0053319209

    Largest TIJAB Amplitudes:
      6   2  92  21        -0.0119630567
      6   2 101  38        -0.0100912776
      6   4  92  29         0.0089428732
      4   2  29  21         0.0086132661
      4   2  41  40         0.0085274962
      6   4 103  40         0.0077080915
      6   2 111  54        -0.0076505721
      6   2 102  38         0.0073899487
      7   5  90  17        -0.0073611790
      6   2  88  38         0.0073205193

    Largest Tijab Amplitudes:
      4   1  91  85        -0.0069658823
      5   2 100  17         0.0063674650
      4   1 106  85        -0.0063654475
      5   3  92  18        -0.0063114682
      4   1  42   1         0.0062269109
      5   2  89  13         0.0058727088
      5   3  89  11         0.0058533493
      5   2  94  13         0.0056664750
      5   2  92  17        -0.0056337215
      5   2  86  13         0.0056138326

    Largest TIjAb Amplitudes:
      3   2  12  13         0.0185470082
      6   1  38  85        -0.0166375531
      2   1  38   1        -0.0157908217
      4   1 103  85        -0.0152332382
      2   1 101  85         0.0152154597
      2   1  88  85        -0.0144808610
      4   4  29  30        -0.0139741770
      6   1 101   1        -0.0136869832
      4   1  41   1        -0.0134493687
      6   1  14  85         0.0130647508

    SCF energy       (wfn)                    = -150.874335556462313
    Reference energy (file100)                = -150.874335556463762

    Opposite-spin MP2 correlation energy      =   -0.314698492432288
    Same-spin MP2 correlation energy          =   -0.102013787277189
    MP2 correlation energy                    =   -0.416712279709477
      * MP2 total energy                      = -151.291047836173249

    Opposite-spin CCSD correlation energy     =   -0.342237079013931
    Same-spin CCSD correlation energy         =   -0.095289024604526
    CCSD correlation energy                   =   -0.437526103618457
      * CCSD total energy                     = -151.311861660082229

            **************************
            *                        *
            *        CCTRIPLES       *
            *                        *
            **************************


    Wave function   =    CCSD_T
    Reference wfn   =      UHF

    Nuclear Rep. energy (wfn)                =   22.951579772375606
    SCF energy          (wfn)                = -150.874335556462313
    Reference energy    (file100)            = -150.874335556463762
    CCSD energy         (file100)            =   -0.437526103618457
    Total CCSD energy   (file100)            = -151.311861660082229

    Number of ijk index combinations:
    Spin Case AAA:                                  56
    Spin Case BBB:                                  20
    Spin Case AAB:                                 168
    Spin Case ABB:                                 120
    AAA (T) energy                             =   -0.000400231202646
    BBB (T) energy                             =   -0.000203045992271
    AAB (T) energy                             =   -0.006751545228964
    ABB (T) energy                             =   -0.005017009106815
    (T) energy                                   =   -0.012371831530695
      * CCSD(T) total energy                     = -151.324233491612915

Stephenergy -151.32423349161292
    Psi4 stopped on: Tuesday, 09 March 2021 03:24PM
    Psi4 wall time for execution: 0:05:00.06

*** Psi4 exiting successfully. Buy a developer a beer!
