
    -----------------------------------------------------------------------
          Psi4: An Open-Source Ab Initio Electronic Structure Package
                               Psi4 1.3.2 release

                         Git: Rev {HEAD} ecbda83 


    R. M. Parrish, L. A. Burns, D. G. A. Smith, A. C. Simmonett,
    A. E. DePrince III, E. G. Hohenstein, U. Bozkaya, A. Yu. Sokolov,
    R. Di Remigio, R. M. Richard, J. F. Gonthier, A. M. James,
    H. R. McAlexander, A. Kumar, M. Saitow, X. Wang, B. P. Pritchard,
    P. Verma, H. F. Schaefer III, K. Patkowski, R. A. King, E. F. Valeev,
    F. A. Evangelista, J. M. Turney, T. D. Crawford, and C. D. Sherrill,
    J. Chem. Theory Comput. 13(7) pp 3185--3197 (2017).
    (doi: 10.1021/acs.jctc.7b00174)


                         Additional Contributions by
    P. Kraus, H. Kruse, M. H. Lechner, M. C. Schieber, R. A. Shaw,
    A. Alenaizan, R. Galvelis, Z. L. Glick, S. Lehtola, and J. P. Misiewicz

    -----------------------------------------------------------------------


    Psi4 started on: Monday, 08 March 2021 05:28PM

    Process ID: 126980
    Host:       c2-24.compute.lan
    PSIDATADIR: /apps/gb/PSI4/1.3.2/share/psi4
    Memory:     500.0 MiB
    Threads:    12
    
  ==> Input File <==

--------------------------------------------------------------------------
memory 4 GB

molecule  {
0 3
O    0.000000000000    0.000000000000    1.259811948868
H    0.000000000000   -0.760493697200    1.846662579950
H   -0.000000000000    0.760493697200    1.846662579950
O    0.000000000000    0.000000000000   -1.492525010291
}
set {
basis aug-cc-pvtz
reference uhf
e_convergence 10
scf_type pk
freeze_core true
}

set ccenergy {
e_convergence 10
r_convergence 10
}

e = energy('ccsd(t)')

print_out('Stephenergy {}'.format(e))

--------------------------------------------------------------------------

  Memory set to   3.725 GiB by Python driver.

*** tstart() called on c2-24.compute.lan
*** at Mon Mar  8 17:28:40 2021

   => Loading Basis Set <=

    Name: AUG-CC-PVTZ
    Role: ORBITAL
    Keyword: BASIS
    atoms 1, 4 entry O          line   327 file /apps/gb/PSI4/1.3.2/share/psi4/basis/aug-cc-pvtz.gbs 
    atoms 2-3  entry H          line    36 file /apps/gb/PSI4/1.3.2/share/psi4/basis/aug-cc-pvtz.gbs 


         ---------------------------------------------------------
                                   SCF
               by Justin Turney, Rob Parrish, Andy Simmonett
                          and Daniel G. A. Smith
                              UHF Reference
                       12 Threads,   3814 MiB Core
         ---------------------------------------------------------

  ==> Geometry <==

    Molecular point group: c2v
    Full point group: C2v

    Geometry (in Angstrom), charge = 0, multiplicity = 3:

       Center              X                  Y                   Z               Mass       
    ------------   -----------------  -----------------  -----------------  -----------------
         O            0.000000000000     0.000000000000     1.259811948868    15.994914619570
         H            0.000000000000    -0.760493697200     1.846662579950     1.007825032230
         H           -0.000000000000     0.760493697200     1.846662579950     1.007825032230
         O            0.000000000000     0.000000000000    -1.492525010291    15.994914619570

  Running in c2v symmetry.

  Rotational constants: A =     14.46073  B =      0.24831  C =      0.24411 [cm^-1]
  Rotational constants: A = 433521.68342  B =   7444.04142  C =   7318.37688 [MHz]
  Nuclear repulsion =   23.939296828377124

  Charge       = 0
  Multiplicity = 3
  Electrons    = 18
  Nalpha       = 10
  Nbeta        = 8

  ==> Algorithm <==

  SCF Algorithm Type is PK.
  DIIS enabled.
  MOM disabled.
  Fractional occupation disabled.
  Guess Type is SAD.
  Energy threshold   = 1.00e-10
  Density threshold  = 1.00e-08
  Integral threshold = 0.00e+00

  ==> Primary Basis <==

  Basis Set: AUG-CC-PVTZ
    Blend: AUG-CC-PVTZ
    Number of shells: 46
    Number of basis function: 138
    Number of Cartesian functions: 160
    Spherical Harmonics?: true
    Max angular momentum: 3

  ==> Pre-Iterations <==

   -------------------------------------------------------
    Irrep   Nso     Nmo     Nalpha   Nbeta   Ndocc  Nsocc
   -------------------------------------------------------
     A1        54      54       0       0       0       0
     A2        17      17       0       0       0       0
     B1        29      29       0       0       0       0
     B2        38      38       0       0       0       0
   -------------------------------------------------------
    Total     138     138      10       8       8       2
   -------------------------------------------------------

  ==> Integral Setup <==

  Using in-core PK algorithm.
   Calculation information:
      Number of atoms:                   4
      Number of AO shells:              46
      Number of primitives:             82
      Number of atomic orbitals:       160
      Number of basis functions:       138

      Integral cutoff                 1.00e-12
      Number of threads:                12

  Performing in-core PK
  Using 91996872 doubles for integral storage.
  We computed 911669 shell quartets total.
  Whereas there are 584821 unique shell quartets.
    55.89 percent of shell quartets recomputed by reordering.

  ==> DiskJK: Disk-Based J/K Matrices <==

    J tasked:                  Yes
    K tasked:                  Yes
    wK tasked:                  No
    Memory [MiB]:             2861
    Schwarz Cutoff:          1E-12

    OpenMP threads:             12

  Minimum eigenvalue in the overlap matrix is 3.2000497245E-04.
  Using Symmetric Orthogonalization.

  SCF Guess: Superposition of Atomic Densities via on-the-fly atomic UHF.

  ==> Iterations <==

                        Total Energy        Delta E     RMS |[F,P]|

   @UHF iter SAD:  -149.38301149151732   -1.49383e+02   0.00000e+00 
   @UHF iter   1:  -150.76990036754859   -1.38689e+00   6.68891e-03 DIIS
   @UHF iter   2:  -150.84087012042775   -7.09698e-02   4.24099e-03 DIIS
   @UHF iter   3:  -150.87197946158773   -3.11093e-02   5.61441e-04 DIIS
   @UHF iter   4:  -150.87337673618291   -1.39727e-03   1.70520e-04 DIIS
   @UHF iter   5:  -150.87351086639256   -1.34130e-04   6.96574e-05 DIIS
   @UHF iter   6:  -150.87354381222141   -3.29458e-05   2.08929e-05 DIIS
   @UHF iter   7:  -150.87354692320349   -3.11098e-06   5.38060e-06 DIIS
   @UHF iter   8:  -150.87354714932854   -2.26125e-07   1.51709e-06 DIIS
   @UHF iter   9:  -150.87354716692971   -1.76012e-08   3.91127e-07 DIIS
   @UHF iter  10:  -150.87354716818416   -1.25445e-09   1.89308e-07 DIIS
   @UHF iter  11:  -150.87354716857882   -3.94664e-10   7.12856e-08 DIIS
   @UHF iter  12:  -150.87354716863464   -5.58202e-11   1.52324e-08 DIIS
   @UHF iter  13:  -150.87354716863672   -2.07478e-12   4.49813e-09 DIIS
  Energy and wave function converged.


  ==> Post-Iterations <==

   @Spin Contamination Metric:   9.545551269E-03
   @S^2 Expected:                2.000000000E+00
   @S^2 Observed:                2.009545551E+00
   @S   Expected:                1.000000000E+00
   @S   Observed:                1.000000000E+00

    Orbital Energies [Eh]
    ---------------------

    Alpha Occupied:                                                       

       1A1   -20.684092     2A1   -20.570960     3A1    -1.393598  
       4A1    -1.355696     1B2    -0.719923     5A1    -0.688117  
       1B1    -0.684861     6A1    -0.585953     2B2    -0.585871  
       2B1    -0.514083  

    Alpha Virtual:                                                        

       7A1     0.029594     3B2     0.047657     8A1     0.118287  
       3B1     0.154150     9A1     0.159532     4B2     0.180239  
       5B2     0.187220     4B1     0.192791    10A1     0.198090  
       1A2     0.263571     6B2     0.264589    11A1     0.265404  
      12A1     0.314490     5B1     0.327438    13A1     0.376069  
       7B2     0.380317    14A1     0.449974     8B2     0.464479  
       9B2     0.600290     6B1     0.643926    15A1     0.647634  
       2A2     0.658245    16A1     0.667126    17A1     0.699198  
       3A2     0.721498    10B2     0.724347     7B1     0.769020  
      18A1     0.793102    19A1     0.820291     8B1     0.837566  
      20A1     0.860449     9B1     0.901407    11B2     0.918699  
       4A2     0.925022    12B2     0.946668    13B2     0.981419  
      21A1     0.992049    10B1     1.015622    22A1     1.047179  
      14B2     1.051798    11B1     1.124161     5A2     1.176793  
      23A1     1.192100    15B2     1.200953    16B2     1.330293  
      24A1     1.334785    25A1     1.453134     6A2     1.507711  
      12B1     1.596283    26A1     1.669925    27A1     1.811510  
      17B2     1.820585    18B2     1.978391    28A1     2.041083  
      13B1     2.048438    19B2     2.054445     7A2     2.058190  
      14B1     2.059289    29A1     2.079264    30A1     2.115094  
       8A2     2.119400    20B2     2.138259    31A1     2.142842  
      15B1     2.147895    32A1     2.253075    21B2     2.273222  
      16B1     2.302728     9A2     2.311964    17B1     2.438085  
      33A1     2.475494    22B2     2.481180    34A1     2.491648  
      35A1     2.698717    18B1     2.717024    23B2     2.722348  
      36A1     2.844116    24B2     2.863445    10A2     2.880444  
      25B2     3.694288    37A1     3.756736    11A2     4.012801  
      19B1     4.080653    20B1     4.100240    38A1     4.145337  
      26B2     4.184824    27B2     4.282558    21B1     4.293260  
      39A1     4.356507    12A2     4.382807    40A1     4.431418  
      22B1     4.454247    28B2     4.514286    41A1     4.792207  
      29B2     4.840208    30B2     5.140236    13A2     5.147514  
      31B2     5.252844    42A1     5.343901    23B1     5.517608  
      43A1     5.691398    44A1     6.198025    24B1     6.390635  
      14A2     6.411002    45A1     6.411238    32B2     6.424305  
      25B1     6.436098    33B2     6.491422    46A1     6.541830  
      34B2     6.581777    26B1     6.718779    27B1     6.903909  
      47A1     6.907810    15A2     6.925051    48A1     6.943495  
      35B2     6.987013    49A1     7.046145    28B1     7.136458  
      29B1     7.279643    16A2     7.307089    36B2     7.315871  
      17A2     7.353313    50A1     7.435973    51A1     7.546405  
      52A1     7.914676    37B2     7.916264    38B2     8.808176  
      53A1     8.883248    54A1    15.806498  

    Beta Occupied:                                                        

       1A1   -20.605211     2A1   -20.570461     3A1    -1.354973  
       4A1    -1.050765     1B2    -0.719569     5A1    -0.587877  
       1B1    -0.513372     2B2    -0.495271  

    Beta Virtual:                                                         

       6A1     0.029436     3B2     0.047740     2B1     0.086789  
       7A1     0.092060     8A1     0.141270     9A1     0.167005  
       3B1     0.170632     4B2     0.180827     5B2     0.190866  
      10A1     0.225636     4B1     0.253495     1A2     0.263573  
       6B2     0.265025    11A1     0.288718    12A1     0.316964  
       5B1     0.328711     7B2     0.380487    13A1     0.386532  
      14A1     0.451024     8B2     0.464686     9B2     0.601950  
      15A1     0.660246     6B1     0.667686     2A2     0.672615  
      16A1     0.674153    17A1     0.716476     3A2     0.721986  
      10B2     0.736509     7B1     0.780562    18A1     0.807391  
       8B1     0.846933    19A1     0.851606     4A2     0.925437  
      20A1     0.927966    11B2     0.936562    12B2     0.953483  
      13B2     0.985326     9B1     0.987679    21A1     0.999151  
      14B2     1.052903    22A1     1.053737    10B1     1.061406  
      11B1     1.141059     5A2     1.176994    23A1     1.193563  
      15B2     1.203628    16B2     1.332752    24A1     1.391370  
      25A1     1.491330     6A2     1.508151    12B1     1.598275  
      26A1     1.700630    27A1     1.816829    17B2     1.820908  
      18B2     1.979910    28A1     2.070592    13B1     2.071141  
      19B2     2.071841     7A2     2.082875    29A1     2.099457  
      14B1     2.101474    30A1     2.156343    20B2     2.185276  
       8A2     2.202552    31A1     2.209391    15B1     2.260351  
      32A1     2.311418     9A2     2.312092    16B1     2.317859  
      21B2     2.323742    17B1     2.446730    33A1     2.483186  
      22B2     2.483999    34A1     2.524917    35A1     2.705827  
      18B1     2.718804    23B2     2.723267    36A1     2.856622  
      24B2     2.863577    10A2     2.880482    25B2     3.695230  
      37A1     3.756873    11A2     4.012832    19B1     4.083102  
      38A1     4.177821    26B2     4.220053    20B1     4.260617  
      27B2     4.293739    21B1     4.297643    12A2     4.382920  
      39A1     4.427360    22B1     4.459592    40A1     4.474993  
      28B2     4.514381    41A1     4.803608    29B2     4.840373  
      30B2     5.140434    13A2     5.147595    31B2     5.253309  
      42A1     5.344532    23B1     5.517727    43A1     5.696334  
      44A1     6.199599    24B1     6.486117    14A2     6.487829  
      32B2     6.488177    45A1     6.494641    25B1     6.500237  
      33B2     6.526465    34B2     6.610555    46A1     6.613408  
      26B1     6.726443    47A1     6.961206    15A2     7.038601  
      48A1     7.042668    27B1     7.086461    35B2     7.098859  
      28B1     7.136877    49A1     7.173499    29B1     7.283757  
      16A2     7.307383    36B2     7.316075    17A2     7.353747  
      50A1     7.438805    51A1     7.547493    52A1     7.915282  
      37B2     7.916636    38B2     8.808573    53A1     8.962424  
      54A1    15.806841  

    Final Occupation by Irrep:
             A1    A2    B1    B2 
    DOCC [     5,    0,    1,    2 ]
    SOCC [     1,    0,    1,    0 ]

  @UHF Final Energy:  -150.87354716863672

   => Energetics <=

    Nuclear Repulsion Energy =             23.9392968283771239
    One-Electron Energy =                -255.9450359788563105
    Two-Electron Energy =                  81.1321919818424817
    Total Energy =                       -150.8735471686367191

  UHF NO Occupations:
  HONO-2 :    5 A1 1.9970482
  HONO-1 :    2 B1 1.0000000
  HONO-0 :    6 A1 1.0000000
  LUNO+0 :    7 A1 0.0029518
  LUNO+1 :    3 B2 0.0017987
  LUNO+2 :    8 A1 0.0000241
  LUNO+3 :    9 A1 0.0000024


Computation Completed


Properties will be evaluated at   0.000000,   0.000000,   0.000000 [a0]

Properties computed using the SCF density matrix

  Nuclear Dipole Moment: [e a0]
     X:     0.0000      Y:     0.0000      Z:     3.4613

  Electronic Dipole Moment: [e a0]
     X:     0.0000      Y:     0.0000      Z:    -2.6257

  Dipole Moment: [e a0]
     X:     0.0000      Y:     0.0000      Z:     0.8356     Total:     0.8356

  Dipole Moment: [D]
     X:     0.0000      Y:     0.0000      Z:     2.1238     Total:     2.1238


*** tstop() called on c2-24.compute.lan at Mon Mar  8 17:28:44 2021
Module time:
	user time   =      38.59 seconds =       0.64 minutes
	system time =       1.66 seconds =       0.03 minutes
	total time  =          4 seconds =       0.07 minutes
Total time:
	user time   =      38.59 seconds =       0.64 minutes
	system time =       1.66 seconds =       0.03 minutes
	total time  =          4 seconds =       0.07 minutes
 MINTS: Wrapper to libmints.
   by Justin Turney

   Calculation information:
      Number of threads:                12
      Number of atoms:                   4
      Number of AO shells:              46
      Number of SO shells:              37
      Number of primitives:             82
      Number of atomic orbitals:       160
      Number of basis functions:       138

      Number of irreps:                  4
      Integral cutoff                 0.00e+00
      Number of functions per irrep: [  54   17   29   38 ]

 OEINTS: Overlap, kinetic, potential, dipole, and quadrupole integrals
         stored in file 35.

      Computing two-electron integrals...done
      Computed 11327499 non-zero two-electron integrals.
        Stored in file 33.


*** tstart() called on c2-24.compute.lan
*** at Mon Mar  8 17:28:47 2021


	Wfn Parameters:
	--------------------
	Wavefunction         = CCSD_T
	Number of irreps     = 4
	Number of MOs        = 138
	Number of active MOs = 136
	AO-Basis             = NONE
	Semicanonical        = false
	Reference            = UHF
	Print Level          = 1

	IRREP	# MOs	# FZDC	# DOCC	# SOCC	# VIRT	# FZVR
	-----	-----	------	------	------	------	------
	 A1	   54	    2	    3	    1	    48	    0
	 A2	   17	    0	    0	    0	    17	    0
	 B1	   29	    0	    1	    1	    27	    0
	 B2	   38	    0	    2	    0	    36	    0
	Transforming integrals...
	IWL integrals will be deleted.
	(OO|OO)...
	Presorting SO-basis two-electron integrals.
	Sorting File: SO Ints (nn|nn) nbuckets = 1
	Transforming the one-electron integrals and constructing Fock matrices
	Starting AA/AB first half-transformation.
	Sorting AA/AB half-transformed integrals.
	Starting BB first half-transformation.
	Sorting BB half-transformed integrals.
	First half integral transformation complete.
	Starting AA second half-transformation.
	Starting AB second half-transformation.
	Starting BB second half-transformation.
	Two-electron integral transformation complete.
	(OO|OV)...
	Starting AA second half-transformation.
	Starting AB second half-transformation.
	Starting BB second half-transformation.
	Two-electron integral transformation complete.
	(OO|VV)...
	Starting AA second half-transformation.
	Starting AB second half-transformation.
	Starting BB second half-transformation.
	Two-electron integral transformation complete.
	(OV|OO)...
	Starting AA/AB first half-transformation.
	Sorting AA/AB half-transformed integrals.
	Starting BB first half-transformation.
	Sorting BB half-transformed integrals.
	First half integral transformation complete.
	Starting AA second half-transformation.
	Starting AB second half-transformation.
	Starting BB second half-transformation.
	Two-electron integral transformation complete.
	(OV|OV)...
	Starting AA second half-transformation.
	Starting AB second half-transformation.
	Starting BB second half-transformation.
	Two-electron integral transformation complete.
	(OV|VV)...
	Starting AA second half-transformation.
	Starting AB second half-transformation.
	Starting BB second half-transformation.
	Two-electron integral transformation complete.
	(VV|OO)...
	Starting AA/AB first half-transformation.
	Sorting AA/AB half-transformed integrals.
	Starting BB first half-transformation.
	Sorting BB half-transformed integrals.
	First half integral transformation complete.
	Starting AA second half-transformation.
	Starting AB second half-transformation.
	Starting BB second half-transformation.
	Two-electron integral transformation complete.
	(VV|OV)...
	Starting AA second half-transformation.
	Starting AB second half-transformation.
	Starting BB second half-transformation.
	Two-electron integral transformation complete.
	(VV|VV)...
	Starting AA second half-transformation.
	Starting AB second half-transformation.
	Starting BB second half-transformation.
	Two-electron integral transformation complete.
	Frozen core energy     =   -126.41578078227806

	Size of irrep 0 of <AB|CD> integrals:      5.040 (MW) /     40.320 (MB)
	Size of irrep 1 of <AB|CD> integrals:      3.197 (MW) /     25.576 (MB)
	Size of irrep 2 of <AB|CD> integrals:      3.640 (MW) /     29.124 (MB)
	Size of irrep 3 of <AB|CD> integrals:      4.783 (MW) /     38.264 (MB)
	Total:                                    16.660 (MW) /    133.283 (MB)

	Size of irrep 0 of <ab|cd> integrals:      5.382 (MW) /     43.059 (MB)
	Size of irrep 1 of <ab|cd> integrals:      3.389 (MW) /     27.114 (MB)
	Size of irrep 2 of <ab|cd> integrals:      3.936 (MW) /     31.490 (MB)
	Size of irrep 3 of <ab|cd> integrals:      5.018 (MW) /     40.141 (MB)
	Total:                                    17.726 (MW) /    141.804 (MB)

	Size of irrep 0 of <Ab|Cd> integrals:     22.024 (MW) /    176.194 (MB)
	Size of irrep 1 of <Ab|Cd> integrals:     13.170 (MW) /    105.357 (MB)
	Size of irrep 2 of <Ab|Cd> integrals:     15.140 (MW) /    121.119 (MB)
	Size of irrep 3 of <Ab|Cd> integrals:     19.598 (MW) /    156.787 (MB)
	Total:                                    69.932 (MW) /    559.457 (MB)

	Size of irrep 0 of <IA|BC> integrals:      1.469 (MW) /     11.748 (MB)
	Size of irrep 1 of <IA|BC> integrals:      0.694 (MW) /      5.550 (MB)
	Size of irrep 2 of <IA|BC> integrals:      0.908 (MW) /      7.266 (MB)
	Size of irrep 3 of <IA|BC> integrals:      1.198 (MW) /      9.588 (MB)
	Total:                                     4.269 (MW) /     34.152 (MB)

	Size of irrep 0 of <ia|bc> integrals:      1.178 (MW) /      9.426 (MB)
	Size of irrep 1 of <ia|bc> integrals:      0.527 (MW) /      4.212 (MB)
	Size of irrep 2 of <ia|bc> integrals:      0.663 (MW) /      5.301 (MB)
	Size of irrep 3 of <ia|bc> integrals:      0.999 (MW) /      7.992 (MB)
	Total:                                     3.366 (MW) /     26.931 (MB)

	Size of irrep 0 of <Ia|Bc> integrals:      1.521 (MW) /     12.164 (MB)
	Size of irrep 1 of <Ia|Bc> integrals:      0.711 (MW) /      5.690 (MB)
	Size of irrep 2 of <Ia|Bc> integrals:      0.949 (MW) /      7.595 (MB)
	Size of irrep 3 of <Ia|Bc> integrals:      1.222 (MW) /      9.775 (MB)
	Total:                                     4.403 (MW) /     35.225 (MB)

	Size of irrep 0 of <iA|bC> integrals:      1.140 (MW) /      9.123 (MB)
	Size of irrep 1 of <iA|bC> integrals:      0.512 (MW) /      4.094 (MB)
	Size of irrep 2 of <iA|bC> integrals:      0.634 (MW) /      5.074 (MB)
	Size of irrep 3 of <iA|bC> integrals:      0.978 (MW) /      7.827 (MB)
	Total:                                     3.265 (MW) /     26.118 (MB)

	Size of irrep 0 of tIjAb amplitudes:       0.084 (MW) /      0.676 (MB)
	Size of irrep 1 of tIjAb amplitudes:       0.022 (MW) /      0.174 (MB)
	Size of irrep 2 of tIjAb amplitudes:       0.039 (MW) /      0.311 (MB)
	Size of irrep 3 of tIjAb amplitudes:       0.062 (MW) /      0.496 (MB)
	Total:                                     0.207 (MW) /      1.657 (MB)

	Nuclear Rep. energy          =     23.93929682837712
	SCF energy                   =   -150.87354716863672
	One-electron energy          =    -85.54419755438448
	Two-electron (AA) energy     =     10.38613868597227
	Two-electron (BB) energy     =      5.47782067215496
	Two-electron (AB) energy     =     21.28317498151993
	Two-electron energy          =     37.14713433964717
	Reference energy             =   -150.87354716863825

*** tstop() called on c2-24.compute.lan at Mon Mar  8 17:29:20 2021
Module time:
	user time   =     236.91 seconds =       3.95 minutes
	system time =      13.65 seconds =       0.23 minutes
	total time  =         33 seconds =       0.55 minutes
Total time:
	user time   =     281.77 seconds =       4.70 minutes
	system time =      15.89 seconds =       0.26 minutes
	total time  =         40 seconds =       0.67 minutes
            **************************
            *                        *
            *        CCENERGY        *
            *                        *
            **************************

    Nuclear Rep. energy (wfn)     =   23.939296828377124
    SCF energy          (wfn)     = -150.873547168636719
    Reference energy    (file100) = -150.873547168638254

    Input parameters:
    -----------------
    Wave function   =     CCSD_T
    Reference wfn   =     UHF
    Brueckner       =     No
    Memory (Mbytes) =     4000.0
    Maxiter         =     50
    R_Convergence   =     1.0e-10
    E_Convergence   =     1.0e-10
    Restart         =     Yes
    DIIS            =     Yes
    AO Basis        =     NONE
    ABCD            =     NEW
    Cache Level     =     2
    Cache Type      =     LRU
    Print Level     =     1
    Num. of threads =     12
    # Amps to Print =     10
    Print MP2 Amps? =     No
    Analyze T2 Amps =     No
    Print Pair Ener =     No
    Local CC        =     No
    SCS-MP2         =     False
    SCSN-MP2        =     False
    SCS-CCSD        =     False

MP2 correlation energy -0.4162331782843547
                Solving CC Amplitude Equations
                ------------------------------
  Iter             Energy              RMS        T1Diag      D1Diag    New D1Diag    D2Diag
  ----     ---------------------    ---------   ----------  ----------  ----------   --------
     0        -0.416233178284355    0.000e+00    0.000000    0.000000    0.000000    0.000000
     1        -0.427037896537198    5.696e-02    0.010585    0.000000    0.000000    0.000000
     2        -0.435126865487958    1.702e-02    0.011085    0.000000    0.000000    0.000000
     3        -0.437276609773701    8.793e-03    0.013014    0.000000    0.000000    0.000000
     4        -0.437149909664999    2.695e-03    0.013429    0.000000    0.000000    0.000000
     5        -0.437140468589370    1.406e-03    0.013627    0.000000    0.000000    0.000000
     6        -0.437169840535782    5.315e-04    0.013655    0.000000    0.000000    0.000000
     7        -0.437172829113148    2.159e-04    0.013650    0.000000    0.000000    0.000000
     8        -0.437173741357469    6.678e-05    0.013645    0.000000    0.000000    0.000000
     9        -0.437174434787530    2.401e-05    0.013645    0.000000    0.000000    0.000000
    10        -0.437173526038000    9.236e-06    0.013645    0.000000    0.000000    0.000000
    11        -0.437173691046139    4.050e-06    0.013644    0.000000    0.000000    0.000000
    12        -0.437173651384196    1.477e-06    0.013645    0.000000    0.000000    0.000000
    13        -0.437173659714574    7.481e-07    0.013645    0.000000    0.000000    0.000000
    14        -0.437173682984315    3.144e-07    0.013645    0.000000    0.000000    0.000000
    15        -0.437173684629691    1.138e-07    0.013645    0.000000    0.000000    0.000000
    16        -0.437173685264148    5.204e-08    0.013645    0.000000    0.000000    0.000000
    17        -0.437173685820972    1.981e-08    0.013645    0.000000    0.000000    0.000000
    18        -0.437173685662657    1.060e-08    0.013645    0.000000    0.000000    0.000000
    19        -0.437173685430664    4.097e-09    0.013645    0.000000    0.000000    0.000000
    20        -0.437173685417989    2.197e-09    0.013645    0.000000    0.000000    0.000000
    21        -0.437173685394838    8.322e-10    0.013645    0.000000    0.000000    0.000000
    22        -0.437173685393740    3.322e-10    0.013645    0.000000    0.000000    0.000000
    23        -0.437173685393137    1.737e-10    0.013645    0.000000    0.000000    0.000000
    24        -0.437173685392951    7.130e-11    0.013645    0.000000    0.000000    0.000000

    Iterations converged.


    Largest TIA Amplitudes:
              5  65        -0.0133590638
              5  67        -0.0111409815
              7  94         0.0105346710
              5  66        -0.0096150040
              4  65        -0.0074751744
              3   1         0.0074731023
              2   3         0.0072196482
              4  66         0.0071853184
              3   5        -0.0055175521
              3   6         0.0054880003

    Largest Tia Amplitudes:
              3  67        -0.0147404991
              2   2         0.0137223832
              3  69        -0.0107495067
              5  96         0.0080200295
              3  66        -0.0078817296
              2   1        -0.0070230805
              2   7         0.0057435517
              2   6        -0.0054794912
              1  25        -0.0053935603
              4 109         0.0053762472

    Largest TIJAB Amplitudes:
      7   4 100  71         0.0141984901
      7   4  55  23        -0.0136006879
      7   2 100  12        -0.0119589265
      4   2  71  12         0.0108181881
      6   5  50   9        -0.0086164748
      7   4  49  23         0.0082619069
      6   5  97  72        -0.0081190117
      7   4  94  71         0.0079177481
      7   4  55   8        -0.0076315411
      7   4 100  82        -0.0073398610

    Largest Tijab Amplitudes:
      5   1  66  56         0.0086648241
      5   1  66  50        -0.0085520519
      5   1  68  56         0.0081660093
      4   3  99  67        -0.0076233086
      5   1  68  50        -0.0074530456
      4   3  99  73        -0.0072521364
      4   2  99   2         0.0072003285
      4   2  99  12         0.0069253396
      4   2 100   9        -0.0067557163
      4   3  51  10        -0.0065257948

    Largest TIjAb Amplitudes:
      6   4  97  99        -0.0216906268
      7   5 100 103        -0.0215444387
      7   5 100 102         0.0190933652
      7   1  55  66        -0.0180277754
      7   5 100  96        -0.0171469279
      7   1  55  68        -0.0168406326
      4   1  23  66        -0.0166763656
      5   3  72  73        -0.0162018547
      4   1  23  68        -0.0155331429
      7   5  55  56        -0.0145433784

    SCF energy       (wfn)                    = -150.873547168636719
    Reference energy (file100)                = -150.873547168638254

    Opposite-spin MP2 correlation energy      =   -0.314388715205840
    Same-spin MP2 correlation energy          =   -0.101844463078514
    MP2 correlation energy                    =   -0.416233178284355
      * MP2 total energy                      = -151.289780346922612

    Opposite-spin CCSD correlation energy     =   -0.342043888671068
    Same-spin CCSD correlation energy         =   -0.095129796721883
    CCSD correlation energy                   =   -0.437173685392951
      * CCSD total energy                     = -151.310720854031217

            **************************
            *                        *
            *        CCTRIPLES       *
            *                        *
            **************************


    Wave function   =    CCSD_T
    Reference wfn   =      UHF

    Nuclear Rep. energy (wfn)                =   23.939296828377124
    SCF energy          (wfn)                = -150.873547168636719
    Reference energy    (file100)            = -150.873547168638254
    CCSD energy         (file100)            =   -0.437173685392951
    Total CCSD energy   (file100)            = -151.310720854031217

    Number of ijk index combinations:
    Spin Case AAA:                                  56
    Spin Case BBB:                                  20
    Spin Case AAB:                                 168
    Spin Case ABB:                                 120
    AAA (T) energy                             =   -0.000395958491048
    BBB (T) energy                             =   -0.000202481648512
    AAB (T) energy                             =   -0.006708236878136
    ABB (T) energy                             =   -0.004983953258417
    (T) energy                                   =   -0.012290630276113
      * CCSD(T) total energy                     = -151.323011484307330

Stephenergy -151.32301148430733
    Psi4 stopped on: Monday, 08 March 2021 05:30PM
    Psi4 wall time for execution: 0:01:35.32

*** Psi4 exiting successfully. Buy a developer a beer!
