
    -----------------------------------------------------------------------
          Psi4: An Open-Source Ab Initio Electronic Structure Package
                               Psi4 1.3.2 release

                         Git: Rev {HEAD} ecbda83 


    R. M. Parrish, L. A. Burns, D. G. A. Smith, A. C. Simmonett,
    A. E. DePrince III, E. G. Hohenstein, U. Bozkaya, A. Yu. Sokolov,
    R. Di Remigio, R. M. Richard, J. F. Gonthier, A. M. James,
    H. R. McAlexander, A. Kumar, M. Saitow, X. Wang, B. P. Pritchard,
    P. Verma, H. F. Schaefer III, K. Patkowski, R. A. King, E. F. Valeev,
    F. A. Evangelista, J. M. Turney, T. D. Crawford, and C. D. Sherrill,
    J. Chem. Theory Comput. 13(7) pp 3185--3197 (2017).
    (doi: 10.1021/acs.jctc.7b00174)


                         Additional Contributions by
    P. Kraus, H. Kruse, M. H. Lechner, M. C. Schieber, R. A. Shaw,
    A. Alenaizan, R. Galvelis, Z. L. Glick, S. Lehtola, and J. P. Misiewicz

    -----------------------------------------------------------------------


    Psi4 started on: Tuesday, 09 March 2021 03:41PM

    Process ID: 86266
    Host:       d3-3.compute.lan
    PSIDATADIR: /apps/gb/PSI4/1.3.2/share/psi4
    Memory:     500.0 MiB
    Threads:    12
    
  ==> Input File <==

--------------------------------------------------------------------------
memory 4 GB

molecule  {
0 3
O   -1.504254809230   -0.001190138792    0.000000000000 
H   -0.554372391630    0.158879920579    0.000000000000          
H   -1.894861918344    0.875875043214    0.000000000000
O    1.658578836966   -0.064008830977    0.000000000000
}
set {
basis aug-cc-pvtz
reference uhf
e_convergence 10
scf_type pk
freeze_core true
}

set ccenergy {
e_convergence 10
r_convergence 10
}

e = energy('ccsd(t)')

print_out('Stephenergy {}'.format(e))

--------------------------------------------------------------------------

  Memory set to   3.725 GiB by Python driver.

*** tstart() called on d3-3.compute.lan
*** at Tue Mar  9 15:41:03 2021

   => Loading Basis Set <=

    Name: AUG-CC-PVTZ
    Role: ORBITAL
    Keyword: BASIS
    atoms 1, 4 entry O          line   327 file /apps/gb/PSI4/1.3.2/share/psi4/basis/aug-cc-pvtz.gbs 
    atoms 2-3  entry H          line    36 file /apps/gb/PSI4/1.3.2/share/psi4/basis/aug-cc-pvtz.gbs 


         ---------------------------------------------------------
                                   SCF
               by Justin Turney, Rob Parrish, Andy Simmonett
                          and Daniel G. A. Smith
                              UHF Reference
                       12 Threads,   3814 MiB Core
         ---------------------------------------------------------

  ==> Geometry <==

    Molecular point group: cs
    Full point group: Cs

    Geometry (in Angstrom), charge = 0, multiplicity = 3:

       Center              X                  Y                   Z               Mass       
    ------------   -----------------  -----------------  -----------------  -----------------
         O           -1.504254809230    -0.001190138792     0.000000000000    15.994914619570
         H           -0.554372391630     0.158879920579     0.000000000000     1.007825032230
         H           -1.894861918344     0.875875043214     0.000000000000     1.007825032230
         O            1.658578836966    -0.064008830977     0.000000000000    15.994914619570

  Running in cs symmetry.

  Rotational constants: A =     23.31567  B =      0.20006  C =      0.19836 [cm^-1]
  Rotational constants: A = 698986.31233  B =   5997.66446  C =   5946.63921 [MHz]
  Nuclear repulsion =   22.913143800604349

  Charge       = 0
  Multiplicity = 3
  Electrons    = 18
  Nalpha       = 10
  Nbeta        = 8

  ==> Algorithm <==

  SCF Algorithm Type is PK.
  DIIS enabled.
  MOM disabled.
  Fractional occupation disabled.
  Guess Type is SAD.
  Energy threshold   = 1.00e-10
  Density threshold  = 1.00e-08
  Integral threshold = 0.00e+00

  ==> Primary Basis <==

  Basis Set: AUG-CC-PVTZ
    Blend: AUG-CC-PVTZ
    Number of shells: 46
    Number of basis function: 138
    Number of Cartesian functions: 160
    Spherical Harmonics?: true
    Max angular momentum: 3

  ==> Pre-Iterations <==

   -------------------------------------------------------
    Irrep   Nso     Nmo     Nalpha   Nbeta   Ndocc  Nsocc
   -------------------------------------------------------
     A'        92      92       0       0       0       0
     A"        46      46       0       0       0       0
   -------------------------------------------------------
    Total     138     138      10       8       8       2
   -------------------------------------------------------

  ==> Integral Setup <==

  Using in-core PK algorithm.
   Calculation information:
      Number of atoms:                   4
      Number of AO shells:              46
      Number of primitives:             82
      Number of atomic orbitals:       160
      Number of basis functions:       138

      Integral cutoff                 1.00e-12
      Number of threads:                12

  Performing in-core PK
  Using 91996872 doubles for integral storage.
  We computed 901895 shell quartets total.
  Whereas there are 584821 unique shell quartets.
    54.22 percent of shell quartets recomputed by reordering.

  ==> DiskJK: Disk-Based J/K Matrices <==

    J tasked:                  Yes
    K tasked:                  Yes
    wK tasked:                  No
    Memory [MiB]:             2861
    Schwarz Cutoff:          1E-12

    OpenMP threads:             12

  Minimum eigenvalue in the overlap matrix is 2.9466035855E-04.
  Using Symmetric Orthogonalization.

  SCF Guess: Superposition of Atomic Densities via on-the-fly atomic UHF.

  ==> Iterations <==

                        Total Energy        Delta E     RMS |[F,P]|

   @UHF iter SAD:  -149.40145808745905   -1.49401e+02   0.00000e+00 
   @UHF iter   1:  -150.76381109222518   -1.36235e+00   5.04944e-03 DIIS
   @UHF iter   2:  -150.83805128025830   -7.42402e-02   3.27751e-03 DIIS
   @UHF iter   3:  -150.87316441977777   -3.51131e-02   3.93024e-04 DIIS
   @UHF iter   4:  -150.87427850023249   -1.11408e-03   1.30667e-04 DIIS
   @UHF iter   5:  -150.87440550517007   -1.27005e-04   5.12145e-05 DIIS
   @UHF iter   6:  -150.87443984729614   -3.43421e-05   1.54599e-05 DIIS
   @UHF iter   7:  -150.87444371899889   -3.87170e-06   5.66417e-06 DIIS
   @UHF iter   8:  -150.87444461550166   -8.96503e-07   4.53953e-06 DIIS
   @UHF iter   9:  -150.87444538790152   -7.72400e-07   4.42489e-06 DIIS
   @UHF iter  10:  -150.87444659150270   -1.20360e-06   4.36510e-06 DIIS
   @UHF iter  11:  -150.87445363526462   -7.04376e-06   4.06717e-06 DIIS
   @UHF iter  12:  -150.87447136750694   -1.77322e-05   3.84175e-06 DIIS
   @UHF iter  13:  -150.87447290995559   -1.54245e-06   3.37019e-06 DIIS
   @UHF iter  14:  -150.87449089116819   -1.79812e-05   8.73273e-06 DIIS
   @UHF iter  15:  -150.87449081079279    8.03754e-08   6.48171e-06 DIIS
   @UHF iter  16:  -150.87449253145880   -1.72067e-06   6.47983e-06 DIIS
   @UHF iter  17:  -150.87449276127211   -2.29813e-07   2.81335e-06 DIIS
   @UHF iter  18:  -150.87449284570511   -8.44330e-08   1.20732e-06 DIIS
   @UHF iter  19:  -150.87449285779948   -1.20944e-08   1.27838e-07 DIIS
   @UHF iter  20:  -150.87449285772368    7.58007e-11   1.73721e-07 DIIS
   @UHF iter  21:  -150.87449285789725   -1.73571e-10   4.66800e-09 DIIS
   @UHF iter  22:  -150.87449285789870   -1.44951e-12   8.31119e-10 DIIS
  Energy and wave function converged.


  ==> Post-Iterations <==

   @Spin Contamination Metric:   9.373948874E-03
   @S^2 Expected:                2.000000000E+00
   @S^2 Observed:                2.009373949E+00
   @S   Expected:                1.000000000E+00
   @S   Observed:                1.000000000E+00

    Orbital Energies [Eh]
    ---------------------

    Alpha Occupied:                                                       

       1Ap   -20.733026     2Ap   -20.558726     3Ap    -1.442356  
       4Ap    -1.343206     5Ap    -0.733140     1App   -0.732752  
       6Ap    -0.710318     7Ap    -0.634433     8Ap    -0.575178  
       2App   -0.501966  

    Alpha Virtual:                                                        

       9Ap     0.034209    10Ap     0.053482    11Ap     0.128194  
       3App    0.132954    12Ap     0.148139    13Ap     0.160801  
      14Ap     0.183962     4App    0.186813    15Ap     0.214119  
      16Ap     0.241978    17Ap     0.264317     5App    0.286535  
      18Ap     0.304020     6App    0.320529    19Ap     0.364181  
      20Ap     0.406593    21Ap     0.460725    22Ap     0.568653  
       7App    0.602682    23Ap     0.608710    24Ap     0.626834  
      25Ap     0.682391     8App    0.709381    26Ap     0.714661  
       9App    0.736708    10App    0.748794    27Ap     0.750268  
      28Ap     0.811694    11App    0.826074    29Ap     0.837248  
      12App    0.891048    30Ap     0.892590    31Ap     0.922638  
      32Ap     0.945257    13App    0.947550    33Ap     0.951465  
      14App    0.971774    34Ap     0.978473    35Ap     1.043698  
      36Ap     1.136053    15App    1.153586    37Ap     1.169821  
      38Ap     1.184897    39Ap     1.260981    16App    1.295329  
      40Ap     1.316238    17App    1.527575    41Ap     1.586847  
      18App    1.597906    42Ap     1.716574    43Ap     1.809701  
      44Ap     1.843504    45Ap     1.977606    19App    1.977774  
      46Ap     1.978981    20App    2.013269    47Ap     2.018086  
      21App    2.048479    48Ap     2.061274    22App    2.122530  
      49Ap     2.152797    50Ap     2.175819    23App    2.212603  
      24App    2.303240    51Ap     2.310277    52Ap     2.339313  
      53Ap     2.414836    25App    2.441081    54Ap     2.459834  
      55Ap     2.489742    26App    2.526818    56Ap     2.628990  
      57Ap     2.708920    27App    2.727235    58Ap     2.735641  
      59Ap     2.861004    60Ap     2.932190    28App    2.943671  
      61Ap     3.697490    62Ap     3.890912    29App    4.036642  
      30App    4.063204    63Ap     4.074291    31App    4.178064  
      64Ap     4.208431    65Ap     4.265973    32App    4.301633  
      33App    4.391284    66Ap     4.407370    34App    4.430102  
      67Ap     4.446151    68Ap     4.603460    69Ap     4.780486  
      70Ap     4.959689    35App    5.156473    71Ap     5.173106  
      72Ap     5.298237    73Ap     5.391637    36App    5.527096  
      74Ap     5.690599    75Ap     6.189932    37App    6.312414  
      76Ap     6.312446    38App    6.375559    77Ap     6.378233  
      39App    6.518011    78Ap     6.519468    79Ap     6.559139  
      80Ap     6.637023    40App    6.736160    81Ap     6.814560  
      41App    6.820062    82Ap     6.923094    42App    6.936872  
      83Ap     6.961671    84Ap     7.050968    43App    7.148604  
      44App    7.272630    85Ap     7.326245    45App    7.326768  
      86Ap     7.364012    46App    7.434778    87Ap     7.647423  
      88Ap     7.944871    89Ap     7.963150    90Ap     8.813000  
      91Ap     9.517235    92Ap    16.308227  

    Beta Occupied:                                                        

       1Ap   -20.654240     2Ap   -20.558856     3Ap    -1.343778  
       4Ap    -1.099889     5Ap    -0.709540     6Ap    -0.580142  
       7Ap    -0.541199     1App   -0.502009  

    Beta Virtual:                                                         

       8Ap     0.034371     2App    0.049397     9Ap     0.049663  
      10Ap     0.055171    11Ap     0.143795    12Ap     0.153014  
       3App    0.161243    13Ap     0.178099    14Ap     0.207794  
      15Ap     0.225558     4App    0.227212    16Ap     0.250679  
      17Ap     0.265556     5App    0.286742    18Ap     0.306149  
       6App    0.324259    19Ap     0.368076    20Ap     0.417508  
      21Ap     0.461992    22Ap     0.572235    23Ap     0.627571  
       7App    0.635078    24Ap     0.640480    25Ap     0.687224  
      26Ap     0.715330     8App    0.721440     9App    0.739888  
      10App    0.750464    27Ap     0.766672    28Ap     0.818075  
      29Ap     0.868733    11App    0.869203    30Ap     0.919966  
      31Ap     0.941856    12App    0.941883    13App    0.949668  
      32Ap     0.952825    33Ap     0.969880    34Ap     1.017711  
      14App    1.020209    35Ap     1.045837    15App    1.156732  
      36Ap     1.164009    37Ap     1.172934    38Ap     1.216170  
      39Ap     1.264114    16App    1.305922    40Ap     1.324961  
      17App    1.528299    41Ap     1.589051    18App    1.599326  
      42Ap     1.742771    43Ap     1.815223    44Ap     1.854185  
      45Ap     1.987038    46Ap     2.015732    19App    2.015744  
      20App    2.053812    47Ap     2.065920    21App    2.170692  
      48Ap     2.176179    22App    2.179629    49Ap     2.193685  
      50Ap     2.244588    23App    2.249878    24App    2.306644  
      51Ap     2.315789    52Ap     2.362008    53Ap     2.419297  
      25App    2.443810    54Ap     2.460628    55Ap     2.496046  
      26App    2.535255    56Ap     2.636181    57Ap     2.726166  
      27App    2.728551    58Ap     2.738828    59Ap     2.862829  
      60Ap     2.936635    28App    2.944297    61Ap     3.698180  
      62Ap     3.893260    29App    4.039769    30App    4.146746  
      63Ap     4.193563    64Ap     4.243819    31App    4.262703  
      65Ap     4.276912    32App    4.301695    33App    4.391354  
      66Ap     4.410911    34App    4.430753    67Ap     4.490673  
      68Ap     4.605982    69Ap     4.782172    70Ap     4.961651  
      35App    5.156460    71Ap     5.173398    72Ap     5.298481  
      73Ap     5.392844    36App    5.527154    74Ap     5.690942  
      75Ap     6.191204    76Ap     6.421262    37App    6.421267  
      38App    6.450752    77Ap     6.453431    78Ap     6.534399  
      39App    6.571879    79Ap     6.600098    80Ap     6.681949  
      40App    6.742122    81Ap     6.925402    41App    7.005133  
      82Ap     7.006827    42App    7.046086    83Ap     7.068231  
      84Ap     7.130708    43App    7.151164    44App    7.272898  
      85Ap     7.326572    45App    7.327447    86Ap     7.364783  
      46App    7.435187    87Ap     7.648246    88Ap     7.945808  
      89Ap     7.963593    90Ap     8.814553    91Ap     9.592237  
      92Ap    16.308488  

    Final Occupation by Irrep:
             Ap   App 
    DOCC [     7,    1 ]
    SOCC [     1,    1 ]

  @UHF Final Energy:  -150.87449285789870

   => Energetics <=

    Nuclear Repulsion Energy =             22.9131438006043489
    One-Electron Energy =                -253.6205189585555786
    Two-Electron Energy =                  79.8328823000525318
    Total Energy =                       -150.8744928578987015

  UHF NO Occupations:
  HONO-2 :    7 Ap 1.9970282
  HONO-1 :    8 Ap 1.0000000
  HONO-0 :    2App 1.0000000
  LUNO+0 :    9 Ap 0.0029718
  LUNO+1 :   10 Ap 0.0017162
  LUNO+2 :   11 Ap 0.0000024
  LUNO+3 :   12 Ap 0.0000017


Computation Completed


Properties will be evaluated at   0.000000,   0.000000,   0.000000 [a0]

Properties computed using the SCF density matrix

  Nuclear Dipole Moment: [e a0]
     X:    -2.2953      Y:     0.9697      Z:     0.0000

  Electronic Dipole Moment: [e a0]
     X:     2.7573      Y:    -0.2939      Z:     0.0000

  Dipole Moment: [e a0]
     X:     0.4619      Y:     0.6758      Z:     0.0000     Total:     0.8186

  Dipole Moment: [D]
     X:     1.1741      Y:     1.7177      Z:     0.0000     Total:     2.0806


*** tstop() called on d3-3.compute.lan at Tue Mar  9 15:41:09 2021
Module time:
	user time   =      54.04 seconds =       0.90 minutes
	system time =       2.83 seconds =       0.05 minutes
	total time  =          6 seconds =       0.10 minutes
Total time:
	user time   =      54.04 seconds =       0.90 minutes
	system time =       2.83 seconds =       0.05 minutes
	total time  =          6 seconds =       0.10 minutes
 MINTS: Wrapper to libmints.
   by Justin Turney

   Calculation information:
      Number of threads:                12
      Number of atoms:                   4
      Number of AO shells:              46
      Number of SO shells:              46
      Number of primitives:             82
      Number of atomic orbitals:       160
      Number of basis functions:       138

      Number of irreps:                  2
      Integral cutoff                 0.00e+00
      Number of functions per irrep: [  92   46 ]

 OEINTS: Overlap, kinetic, potential, dipole, and quadrupole integrals
         stored in file 35.

      Computing two-electron integrals...done
      Computed 22922979 non-zero two-electron integrals.
        Stored in file 33.


*** tstart() called on d3-3.compute.lan
*** at Tue Mar  9 15:41:13 2021


	Wfn Parameters:
	--------------------
	Wavefunction         = CCSD_T
	Number of irreps     = 2
	Number of MOs        = 138
	Number of active MOs = 136
	AO-Basis             = NONE
	Semicanonical        = false
	Reference            = UHF
	Print Level          = 1

	IRREP	# MOs	# FZDC	# DOCC	# SOCC	# VIRT	# FZVR
	-----	-----	------	------	------	------	------
	 Ap	   92	    2	    5	    1	    84	    0
	 App	   46	    0	    1	    1	    44	    0
	Transforming integrals...
	IWL integrals will be deleted.
	(OO|OO)...
	Presorting SO-basis two-electron integrals.
	Sorting File: SO Ints (nn|nn) nbuckets = 1
	Transforming the one-electron integrals and constructing Fock matrices
	Starting AA/AB first half-transformation.
	Sorting AA/AB half-transformed integrals.
	Starting BB first half-transformation.
	Sorting BB half-transformed integrals.
	First half integral transformation complete.
	Starting AA second half-transformation.
	Starting AB second half-transformation.
	Starting BB second half-transformation.
	Two-electron integral transformation complete.
	(OO|OV)...
	Starting AA second half-transformation.
	Starting AB second half-transformation.
	Starting BB second half-transformation.
	Two-electron integral transformation complete.
	(OO|VV)...
	Starting AA second half-transformation.
	Starting AB second half-transformation.
	Starting BB second half-transformation.
	Two-electron integral transformation complete.
	(OV|OO)...
	Starting AA/AB first half-transformation.
	Sorting AA/AB half-transformed integrals.
	Starting BB first half-transformation.
	Sorting BB half-transformed integrals.
	First half integral transformation complete.
	Starting AA second half-transformation.
	Starting AB second half-transformation.
	Starting BB second half-transformation.
	Two-electron integral transformation complete.
	(OV|OV)...
	Starting AA second half-transformation.
	Starting AB second half-transformation.
	Starting BB second half-transformation.
	Two-electron integral transformation complete.
	(OV|VV)...
	Starting AA second half-transformation.
	Starting AB second half-transformation.
	Starting BB second half-transformation.
	Two-electron integral transformation complete.
	(VV|OO)...
	Starting AA/AB first half-transformation.
	Sorting AA/AB half-transformed integrals.
	Starting BB first half-transformation.
	Sorting BB half-transformed integrals.
	First half integral transformation complete.
	Starting AA second half-transformation.
	Starting AB second half-transformation.
	Starting BB second half-transformation.
	Two-electron integral transformation complete.
	(VV|OV)...
	Starting AA second half-transformation.
	Starting AB second half-transformation.
	Starting BB second half-transformation.
	Two-electron integral transformation complete.
	(VV|VV)...
	Starting AA second half-transformation.
	Starting AB second half-transformation.
	Starting BB second half-transformation.
	Two-electron integral transformation complete.
	Frozen core energy     =   -125.85955382317090

	Size of irrep 0 of <AB|CD> integrals:     19.643 (MW) /    157.141 (MB)
	Size of irrep 1 of <AB|CD> integrals:     13.660 (MW) /    109.283 (MB)
	Total:                                    33.303 (MW) /    266.424 (MB)

	Size of irrep 0 of <ab|cd> integrals:     20.794 (MW) /    166.349 (MB)
	Size of irrep 1 of <ab|cd> integrals:     14.631 (MW) /    117.045 (MB)
	Total:                                    35.424 (MW) /    283.394 (MB)

	Size of irrep 0 of <Ab|Cd> integrals:     83.174 (MW) /    665.395 (MB)
	Size of irrep 1 of <Ab|Cd> integrals:     56.550 (MW) /    452.403 (MB)
	Total:                                   139.725 (MW) /   1117.798 (MB)

	Size of irrep 0 of <IA|BC> integrals:      5.323 (MW) /     42.586 (MB)
	Size of irrep 1 of <IA|BC> integrals:      3.193 (MW) /     25.547 (MB)
	Total:                                     8.517 (MW) /     68.133 (MB)

	Size of irrep 0 of <ia|bc> integrals:      4.348 (MW) /     34.780 (MB)
	Size of irrep 1 of <ia|bc> integrals:      2.372 (MW) /     18.972 (MB)
	Total:                                     6.719 (MW) /     53.752 (MB)

	Size of irrep 0 of <Ia|Bc> integrals:      5.472 (MW) /     43.776 (MB)
	Size of irrep 1 of <Ia|Bc> integrals:      3.309 (MW) /     26.470 (MB)
	Total:                                     8.781 (MW) /     70.246 (MB)

	Size of irrep 0 of <iA|bC> integrals:      4.232 (MW) /     33.853 (MB)
	Size of irrep 1 of <iA|bC> integrals:      2.286 (MW) /     18.289 (MB)
	Total:                                     6.518 (MW) /     52.142 (MB)

	Size of irrep 0 of tIjAb amplitudes:       0.292 (MW) /      2.335 (MB)
	Size of irrep 1 of tIjAb amplitudes:       0.120 (MW) /      0.963 (MB)
	Total:                                     0.412 (MW) /      3.297 (MB)

	Nuclear Rep. energy          =     22.91314380060435
	SCF energy                   =   -150.87449285789870
	One-electron energy          =    -84.40625902985798
	Two-electron (AA) energy     =     10.13701826640620
	Two-electron (BB) energy     =      5.39262922868154
	Two-electron (AB) energy     =     20.94852869943725
	Two-electron energy          =     36.47817619452499
	Reference energy             =   -150.87449285789955

*** tstop() called on d3-3.compute.lan at Tue Mar  9 15:41:59 2021
Module time:
	user time   =     291.76 seconds =       4.86 minutes
	system time =      22.55 seconds =       0.38 minutes
	total time  =         46 seconds =       0.77 minutes
Total time:
	user time   =     352.82 seconds =       5.88 minutes
	system time =      26.34 seconds =       0.44 minutes
	total time  =         56 seconds =       0.93 minutes
            **************************
            *                        *
            *        CCENERGY        *
            *                        *
            **************************

    Nuclear Rep. energy (wfn)     =   22.913143800604349
    SCF energy          (wfn)     = -150.874492857898701
    Reference energy    (file100) = -150.874492857899554

    Input parameters:
    -----------------
    Wave function   =     CCSD_T
    Reference wfn   =     UHF
    Brueckner       =     No
    Memory (Mbytes) =     4000.0
    Maxiter         =     50
    R_Convergence   =     1.0e-10
    E_Convergence   =     1.0e-10
    Restart         =     Yes
    DIIS            =     Yes
    AO Basis        =     NONE
    ABCD            =     NEW
    Cache Level     =     2
    Cache Type      =     LRU
    Print Level     =     1
    Num. of threads =     12
    # Amps to Print =     10
    Print MP2 Amps? =     No
    Analyze T2 Amps =     No
    Print Pair Ener =     No
    Local CC        =     No
    SCS-MP2         =     False
    SCSN-MP2        =     False
    SCS-CCSD        =     False

MP2 correlation energy -0.4165929346060752
                Solving CC Amplitude Equations
                ------------------------------
  Iter             Energy              RMS        T1Diag      D1Diag    New D1Diag    D2Diag
  ----     ---------------------    ---------   ----------  ----------  ----------   --------
     0        -0.416592934606075    0.000e+00    0.000000    0.000000    0.000000    0.000000
     1        -0.427317462069509    5.687e-02    0.010550    0.000000    0.000000    0.000000
     2        -0.435403393144977    1.689e-02    0.011029    0.000000    0.000000    0.000000
     3        -0.437524061404410    8.571e-03    0.012900    0.000000    0.000000    0.000000
     4        -0.437398195597014    2.535e-03    0.013267    0.000000    0.000000    0.000000
     5        -0.437383767141416    1.320e-03    0.013423    0.000000    0.000000    0.000000
     6        -0.437410999232182    5.147e-04    0.013445    0.000000    0.000000    0.000000
     7        -0.437415625351134    2.644e-04    0.013439    0.000000    0.000000    0.000000
     8        -0.437416226299127    9.946e-05    0.013435    0.000000    0.000000    0.000000
     9        -0.437417595675626    7.422e-05    0.013436    0.000000    0.000000    0.000000
    10        -0.437416039344083    6.414e-05    0.013437    0.000000    0.000000    0.000000
    11        -0.437416185941161    6.130e-05    0.013438    0.000000    0.000000    0.000000
    12        -0.437415896238809    5.962e-05    0.013440    0.000000    0.000000    0.000000
    13        -0.437415888854013    5.847e-05    0.013444    0.000000    0.000000    0.000000
    14        -0.437417065337417    5.659e-05    0.013462    0.000000    0.000000    0.000000
    15        -0.437417443300421    5.004e-05    0.013535    0.000000    0.000000    0.000000
    16        -0.437417219864495    3.343e-05    0.013674    0.000000    0.000000    0.000000
    17        -0.437416873353251    1.614e-05    0.013743    0.000000    0.000000    0.000000
    18        -0.437416744048915    7.569e-06    0.013760    0.000000    0.000000    0.000000
    19        -0.437417003331964    3.346e-06    0.013765    0.000000    0.000000    0.000000
    20        -0.437417114795606    1.500e-06    0.013766    0.000000    0.000000    0.000000
    21        -0.437417122785977    5.906e-07    0.013766    0.000000    0.000000    0.000000
    22        -0.437417124056936    2.805e-07    0.013766    0.000000    0.000000    0.000000
    23        -0.437417122942174    1.457e-07    0.013766    0.000000    0.000000    0.000000
    24        -0.437417122269908    6.053e-08    0.013766    0.000000    0.000000    0.000000
    25        -0.437417123232671    3.314e-08    0.013766    0.000000    0.000000    0.000000
    26        -0.437417123692348    2.577e-08    0.013766    0.000000    0.000000    0.000000
    27        -0.437417123851232    2.414e-08    0.013766    0.000000    0.000000    0.000000
    28        -0.437417123798092    2.339e-08    0.013766    0.000000    0.000000    0.000000
    29        -0.437417123632347    2.271e-08    0.013766    0.000000    0.000000    0.000000
    30        -0.437417123364058    2.160e-08    0.013766    0.000000    0.000000    0.000000
    31        -0.437417123567279    1.824e-08    0.013766    0.000000    0.000000    0.000000
    32        -0.437417123913217    9.517e-09    0.013766    0.000000    0.000000    0.000000
    33        -0.437417124015142    4.166e-09    0.013766    0.000000    0.000000    0.000000
    34        -0.437417124066787    1.700e-09    0.013766    0.000000    0.000000    0.000000
    35        -0.437417124073458    6.682e-10    0.013766    0.000000    0.000000    0.000000
    36        -0.437417124073183    2.864e-10    0.013766    0.000000    0.000000    0.000000
    37        -0.437417124071031    1.219e-10    0.013766    0.000000    0.000000    0.000000
    38        -0.437417124072495    5.782e-11    0.013766    0.000000    0.000000    0.000000

    Iterations converged.


    Largest TIA Amplitudes:
              7  87        -0.0121683026
              7  84        -0.0116166920
              7  85        -0.0094545296
              4   3         0.0090148392
              6  84        -0.0080664055
              5   9        -0.0076787887
              4  10         0.0070314443
              5   2        -0.0069829249
              2   2         0.0068837257
              7  86        -0.0063173856

    Largest Tia Amplitudes:
              5  86        -0.0123035406
              5  89        -0.0117510770
              5  85        -0.0098508710
              4   1        -0.0097715775
              3   3         0.0089722908
              3  10        -0.0070986702
              5  88        -0.0065079291
              5  87        -0.0060168848
              3  11         0.0057841132
              4   7        -0.0057236583

    Largest TIJAB Amplitudes:
      6   2  92  20        -0.0109190760
      6   2 101  38        -0.0097776100
      6   4  92  29        -0.0096391231
      6   2  92  21        -0.0087871533
      4   2  29  20        -0.0083941991
      4   2  41  40         0.0082667603
      6   2 102  38         0.0076518711
      4   2  29  21        -0.0073430935
      6   2  88  38         0.0072775764
      6   2 111  54        -0.0072598586

    Largest Tijab Amplitudes:
      4   1  42   1         0.0070515630
      4   1  91  85        -0.0067919556
      4   1  19   1         0.0064326254
      4   1 106  85        -0.0063086326
      5   2  94  13         0.0062763551
      5   2  89  13         0.0058753643
      5   2 100  17         0.0058058809
      5   2  92  17        -0.0057412339
      5   2  86  13         0.0057270380
      3   2  18  15        -0.0054597326

    Largest TIjAb Amplitudes:
      3   2  12  13         0.0182334156
      2   1  38   1        -0.0170702449
      6   1  38  85        -0.0165522823
      4   4  29  30         0.0163492474
      4   1 103  85        -0.0151313859
      2   1 101  85         0.0146395814
      4   1  41   1        -0.0143965854
      6   1 101   1        -0.0143853405
      2   1  88  85        -0.0143800604
      6   1  88   1         0.0141486951

    SCF energy       (wfn)                    = -150.874492857898701
    Reference energy (file100)                = -150.874492857899554

    Opposite-spin MP2 correlation energy      =   -0.314619479197549
    Same-spin MP2 correlation energy          =   -0.101973455408526
    MP2 correlation energy                    =   -0.416592934606075
      * MP2 total energy                      = -151.291085792505640

    Opposite-spin CCSD correlation energy     =   -0.342161818263371
    Same-spin CCSD correlation energy         =   -0.095255305809124
    CCSD correlation energy                   =   -0.437417124072495
      * CCSD total energy                     = -151.311909981972036

            **************************
            *                        *
            *        CCTRIPLES       *
            *                        *
            **************************


    Wave function   =    CCSD_T
    Reference wfn   =      UHF

    Nuclear Rep. energy (wfn)                =   22.913143800604349
    SCF energy          (wfn)                = -150.874492857898701
    Reference energy    (file100)            = -150.874492857899554
    CCSD energy         (file100)            =   -0.437417124072495
    Total CCSD energy   (file100)            = -151.311909981972036

    Number of ijk index combinations:
    Spin Case AAA:                                  56
    Spin Case BBB:                                  20
    Spin Case AAB:                                 168
    Spin Case ABB:                                 120
    AAA (T) energy                             =   -0.000399437838859
    BBB (T) energy                             =   -0.000202570025456
    AAB (T) energy                             =   -0.006741929712715
    ABB (T) energy                             =   -0.005008314327317
    (T) energy                                   =   -0.012352251904347
      * CCSD(T) total energy                     = -151.324262233876397

Stephenergy -151.3242622338764
    Psi4 stopped on: Tuesday, 09 March 2021 03:44PM
    Psi4 wall time for execution: 0:03:36.95

*** Psi4 exiting successfully. Buy a developer a beer!
