
    -----------------------------------------------------------------------
          Psi4: An Open-Source Ab Initio Electronic Structure Package
                               Psi4 1.3.2 release

                         Git: Rev {HEAD} ecbda83 


    R. M. Parrish, L. A. Burns, D. G. A. Smith, A. C. Simmonett,
    A. E. DePrince III, E. G. Hohenstein, U. Bozkaya, A. Yu. Sokolov,
    R. Di Remigio, R. M. Richard, J. F. Gonthier, A. M. James,
    H. R. McAlexander, A. Kumar, M. Saitow, X. Wang, B. P. Pritchard,
    P. Verma, H. F. Schaefer III, K. Patkowski, R. A. King, E. F. Valeev,
    F. A. Evangelista, J. M. Turney, T. D. Crawford, and C. D. Sherrill,
    J. Chem. Theory Comput. 13(7) pp 3185--3197 (2017).
    (doi: 10.1021/acs.jctc.7b00174)


                         Additional Contributions by
    P. Kraus, H. Kruse, M. H. Lechner, M. C. Schieber, R. A. Shaw,
    A. Alenaizan, R. Galvelis, Z. L. Glick, S. Lehtola, and J. P. Misiewicz

    -----------------------------------------------------------------------


    Psi4 started on: Wednesday, 10 March 2021 10:52AM

    Process ID: 113289
    Host:       c4-4.compute.lan
    PSIDATADIR: /apps/gb/PSI4/1.3.2/share/psi4
    Memory:     500.0 MiB
    Threads:    12
    
  ==> Input File <==

--------------------------------------------------------------------------
memory 4 GB

molecule  {
0 3
O    0.000000000000    0.000000000000   -1.646968585107
H    0.000000000000   -0.754282208900   -1.049688451963
H   -0.000000000000    0.754282208900   -1.049688451963
O    0.000000000000    0.000000000000    1.779248415678
}
set {
basis aug-cc-pvtz
reference uhf
e_convergence 10
scf_type pk
freeze_core true
}

set ccenergy {
e_convergence 10
r_convergence 10
}

e = energy('ccsd(t)')

print_out('Stephenergy {}'.format(e))

--------------------------------------------------------------------------

  Memory set to   3.725 GiB by Python driver.

*** tstart() called on c4-4.compute.lan
*** at Wed Mar 10 10:52:41 2021

   => Loading Basis Set <=

    Name: AUG-CC-PVTZ
    Role: ORBITAL
    Keyword: BASIS
    atoms 1, 4 entry O          line   327 file /apps/gb/PSI4/1.3.2/share/psi4/basis/aug-cc-pvtz.gbs 
    atoms 2-3  entry H          line    36 file /apps/gb/PSI4/1.3.2/share/psi4/basis/aug-cc-pvtz.gbs 


         ---------------------------------------------------------
                                   SCF
               by Justin Turney, Rob Parrish, Andy Simmonett
                          and Daniel G. A. Smith
                              UHF Reference
                       12 Threads,   3814 MiB Core
         ---------------------------------------------------------

  ==> Geometry <==

    Molecular point group: c2v
    Full point group: C2v

    Geometry (in Angstrom), charge = 0, multiplicity = 3:

       Center              X                  Y                   Z               Mass       
    ------------   -----------------  -----------------  -----------------  -----------------
         O           -0.000000000000     0.000000000000    -1.646968585107    15.994914619570
         H            0.000000000000    -0.754282208900    -1.049688451963     1.007825032230
         H           -0.000000000000     0.754282208900    -1.049688451963     1.007825032230
         O           -0.000000000000     0.000000000000     1.779248415678    15.994914619570

  Running in c2v symmetry.

  Rotational constants: A =     14.69987  B =      0.17516  C =      0.17309 [cm^-1]
  Rotational constants: A = 440691.15514  B =   5251.08764  C =   5189.25470 [MHz]
  Nuclear repulsion =   21.927589820778692

  Charge       = 0
  Multiplicity = 3
  Electrons    = 18
  Nalpha       = 10
  Nbeta        = 8

  ==> Algorithm <==

  SCF Algorithm Type is PK.
  DIIS enabled.
  MOM disabled.
  Fractional occupation disabled.
  Guess Type is SAD.
  Energy threshold   = 1.00e-10
  Density threshold  = 1.00e-08
  Integral threshold = 0.00e+00

  ==> Primary Basis <==

  Basis Set: AUG-CC-PVTZ
    Blend: AUG-CC-PVTZ
    Number of shells: 46
    Number of basis function: 138
    Number of Cartesian functions: 160
    Spherical Harmonics?: true
    Max angular momentum: 3

  ==> Pre-Iterations <==

   -------------------------------------------------------
    Irrep   Nso     Nmo     Nalpha   Nbeta   Ndocc  Nsocc
   -------------------------------------------------------
     A1        54      54       0       0       0       0
     A2        17      17       0       0       0       0
     B1        29      29       0       0       0       0
     B2        38      38       0       0       0       0
   -------------------------------------------------------
    Total     138     138      10       8       8       2
   -------------------------------------------------------

  ==> Integral Setup <==

  Using in-core PK algorithm.
   Calculation information:
      Number of atoms:                   4
      Number of AO shells:              46
      Number of primitives:             82
      Number of atomic orbitals:       160
      Number of basis functions:       138

      Integral cutoff                 1.00e-12
      Number of threads:                12

  Performing in-core PK
  Using 91996872 doubles for integral storage.
  We computed 905095 shell quartets total.
  Whereas there are 584821 unique shell quartets.
    54.76 percent of shell quartets recomputed by reordering.

  ==> DiskJK: Disk-Based J/K Matrices <==

    J tasked:                  Yes
    K tasked:                  Yes
    wK tasked:                  No
    Memory [MiB]:             2861
    Schwarz Cutoff:          1E-12

    OpenMP threads:             12

  Minimum eigenvalue in the overlap matrix is 3.7156491348E-04.
  Using Symmetric Orthogonalization.

  SCF Guess: Superposition of Atomic Densities via on-the-fly atomic UHF.

  ==> Iterations <==

                        Total Energy        Delta E     RMS |[F,P]|

   @UHF iter SAD:  -149.38247003496184   -1.49382e+02   0.00000e+00 
   @UHF iter   1:  -150.76822456507676   -1.38575e+00   6.87383e-03 DIIS
   @UHF iter   2:  -150.83864588570742   -7.04213e-02   4.45325e-03 DIIS
   @UHF iter   3:  -150.87225879113501   -3.36129e-02   5.34009e-04 DIIS
   @UHF iter   4:  -150.87337296689128   -1.11418e-03   1.77660e-04 DIIS
   @UHF iter   5:  -150.87350179700536   -1.28830e-04   7.05584e-05 DIIS
   @UHF iter   6:  -150.87353534801156   -3.35510e-05   2.01769e-05 DIIS
   @UHF iter   7:  -150.87353826473918   -2.91673e-06   4.83371e-06 DIIS
   @UHF iter   8:  -150.87353844746758   -1.82728e-07   1.20806e-06 DIIS
   @UHF iter   9:  -150.87353845835622   -1.08886e-08   2.21942e-07 DIIS
   @UHF iter  10:  -150.87353845867761   -3.21393e-10   6.68805e-08 DIIS
   @UHF iter  11:  -150.87353845871394   -3.63229e-11   3.39008e-08 DIIS
   @UHF iter  12:  -150.87353845872741   -1.34719e-11   1.04827e-08 DIIS
   @UHF iter  13:  -150.87353845872855   -1.13687e-12   3.60347e-09 DIIS
  Energy and wave function converged.


  ==> Post-Iterations <==

   @Spin Contamination Metric:   9.220716110E-03
   @S^2 Expected:                2.000000000E+00
   @S^2 Observed:                2.009220716E+00
   @S   Expected:                1.000000000E+00
   @S   Observed:                1.000000000E+00

    Orbital Energies [Eh]
    ---------------------

    Alpha Occupied:                                                       

       1A1   -20.728977     2A1   -20.563143     3A1    -1.437959  
       4A1    -1.346788     1B2    -0.729365     1B1    -0.728984  
       2B2    -0.707651     5A1    -0.632297     6A1    -0.580249  
       2B1    -0.505335  

    Alpha Virtual:                                                        

       7A1     0.035483     3B2     0.048548     3B1     0.132097  
       8A1     0.134723     9A1     0.148016     4B2     0.158006  
       4B1     0.181165     5B2     0.184983    10A1     0.189283  
      11A1     0.250254     6B2     0.257471     1A2     0.266104  
      12A1     0.273482     5B1     0.319642    13A1     0.367550  
       7B2     0.382365    14A1     0.454112     8B2     0.471763  
       2A2     0.609083     9B2     0.615714    15A1     0.618356  
      16A1     0.619595     6B1     0.640577    17A1     0.717616  
       3A2     0.731153    10B2     0.735936     7B1     0.742012  
      18A1     0.800439    19A1     0.838265     8B1     0.840828  
      11B2     0.854092     9B1     0.915363    20A1     0.925383  
       4A2     0.934064    12B2     0.941786    21A1     0.958312  
      10B1     0.960695    13B2     0.962030    22A1     1.048763  
      14B2     1.053974    11B1     1.122989     5A2     1.185744  
      23A1     1.186545    15B2     1.255341    24A1     1.262207  
      16B2     1.275337    25A1     1.346027     6A2     1.511322  
      12B1     1.591204    26A1     1.631121    27A1     1.829007  
      17B2     1.830060    18B2     1.971761    13B1     1.978575  
      19B2     1.989280    28A1     2.005289     7A2     2.011079  
      14B1     2.026089    29A1     2.036222     8A2     2.039790  
      20B2     2.081141    30A1     2.086211    15B1     2.119730  
      31A1     2.145454    21B2     2.260681    16B1     2.278782  
       9A2     2.329187    32A1     2.337497    33A1     2.402325  
      34A1     2.487864    22B2     2.492131    17B1     2.505635  
      35A1     2.575433    23B2     2.689469    18B1     2.718818  
      36A1     2.819962    10A2     2.888563    24B2     2.900534  
      25B2     3.666540    37A1     3.751927    11A2     4.031263  
      19B1     4.050687    26B2     4.084634    20B1     4.100826  
      38A1     4.147104    27B2     4.277479    21B1     4.281718  
      39A1     4.366432    12A2     4.382891    40A1     4.405176  
      22B1     4.416126    28B2     4.530452    41A1     4.748996  
      29B2     4.851618    13A2     5.148146    30B2     5.164839  
      31B2     5.249412    42A1     5.367022    23B1     5.526830  
      43A1     5.672834    44A1     6.199883    24B1     6.315135  
      32B2     6.315973    14A2     6.370042    45A1     6.375244  
      25B1     6.402029    33B2     6.450134    46A1     6.480111  
      34B2     6.527405    26B1     6.737196    15A2     6.819126  
      47A1     6.820558    27B1     6.927411    48A1     6.930542  
      35B2     6.956820    49A1     7.033055    28B1     7.135176  
      29B1     7.260231    16A2     7.317309    36B2     7.340564  
      17A2     7.357793    50A1     7.358517    51A1     7.545472  
      52A1     7.897430    37B2     7.936333    53A1     8.530489  
      38B2     8.811200    54A1    15.712943  

    Beta Occupied:                                                        

       1A1   -20.650411     2A1   -20.563181     3A1    -1.346962  
       4A1    -1.095659     1B2    -0.707786     5A1    -0.584364  
       6A1    -0.538557     1B1    -0.505326  

    Beta Virtual:                                                         

       2B2     0.035379     7A1     0.036603     2B1     0.049876  
       3B2     0.069576     8A1     0.140886     9A1     0.150593  
       3B1     0.160454     4B2     0.180894    10A1     0.189600  
       5B2     0.221861     4B1     0.225293    11A1     0.259261  
       6B2     0.263063     1A2     0.266419    12A1     0.274916  
       5B1     0.320286    13A1     0.370937     7B2     0.387425  
      14A1     0.455246     8B2     0.472296     9B2     0.618159  
      15A1     0.620784     2A2     0.641309    16A1     0.651336  
       6B1     0.652685    17A1     0.718940     3A2     0.732580  
       7B1     0.743995    10B2     0.747352    18A1     0.808999  
      19A1     0.851282     8B1     0.912197     9B1     0.930527  
      20A1     0.930709     4A2     0.935462    11B2     0.940003  
      12B2     0.944578    21A1     0.959243    13B2     1.009520  
      10B1     1.024991    22A1     1.049357    14B2     1.056794  
      11B1     1.128049     5A2     1.186451    23A1     1.190610  
      15B2     1.268902    16B2     1.278551    24A1     1.281039  
      25A1     1.403485     6A2     1.511429    12B1     1.591306  
      26A1     1.643776    27A1     1.830138    17B2     1.831304  
      18B2     1.978581    13B1     2.016670    19B2     2.021361  
      28A1     2.030474     7A2     2.041568    14B1     2.046323  
      29A1     2.099873    20B2     2.124968    30A1     2.155115  
       8A2     2.182379    15B1     2.189011    31A1     2.195253  
      16B1     2.282996    21B2     2.306650     9A2     2.332127  
      32A1     2.358470    33A1     2.413063    34A1     2.492085  
      22B2     2.496754    17B1     2.510307    35A1     2.578421  
      23B2     2.689629    18B1     2.718908    36A1     2.820273  
      10A2     2.888585    24B2     2.902568    25B2     3.666579  
      37A1     3.752073    11A2     4.031350    19B1     4.100172  
      38A1     4.161633    20B1     4.223502    26B2     4.241085  
      21B1     4.281739    27B2     4.291238    12A2     4.382938  
      39A1     4.390032    40A1     4.414555    22B1     4.416310  
      28B2     4.530650    41A1     4.749145    29B2     4.851710  
      13A2     5.148163    30B2     5.164843    31B2     5.249435  
      42A1     5.367471    23B1     5.526834    43A1     5.673169  
      44A1     6.201571    24B1     6.423983    32B2     6.424676  
      14A2     6.446703    45A1     6.450292    25B1     6.457316  
      33B2     6.494590    46A1     6.528919    34B2     6.539579  
      26B1     6.743605    47A1     6.930575    15A2     7.008150  
      48A1     7.009950    27B1     7.034841    35B2     7.065853  
      49A1     7.114027    28B1     7.135444    29B1     7.260187  
      16A2     7.317347    36B2     7.342660    17A2     7.357855  
      50A1     7.359190    51A1     7.546180    52A1     7.897661  
      37B2     7.936317    53A1     8.615601    38B2     8.811139  
      54A1    15.712937  

    Final Occupation by Irrep:
             A1    A2    B1    B2 
    DOCC [     6,    0,    1,    1 ]
    SOCC [     0,    0,    1,    1 ]

  @UHF Final Energy:  -150.87353845872855

   => Energetics <=

    Nuclear Repulsion Energy =             21.9275898207786923
    One-Electron Energy =                -251.6492632381159069
    Two-Electron Energy =                  78.8481349586086822
    Total Energy =                       -150.8735384587285466

  UHF NO Occupations:
  HONO-2 :    6 A1 1.9970742
  HONO-1 :    2 B2 1.0000000
  HONO-0 :    2 B1 1.0000000
  LUNO+0 :    7 A1 0.0029258
  LUNO+1 :    8 A1 0.0016872
  LUNO+2 :    9 A1 0.0000024
  LUNO+3 :   10 A1 0.0000004


Computation Completed


Properties will be evaluated at   0.000000,   0.000000,   0.000000 [a0]

Properties computed using the SCF density matrix

  Nuclear Dipole Moment: [e a0]
     X:    -0.0000      Y:     0.0000      Z:    -1.9675

  Electronic Dipole Moment: [e a0]
     X:     0.0000      Y:     0.0000      Z:     2.8015

  Dipole Moment: [e a0]
     X:    -0.0000      Y:     0.0000      Z:     0.8340     Total:     0.8340

  Dipole Moment: [D]
     X:    -0.0000      Y:     0.0000      Z:     2.1199     Total:     2.1199


*** tstop() called on c4-4.compute.lan at Wed Mar 10 10:52:46 2021
Module time:
	user time   =      47.06 seconds =       0.78 minutes
	system time =       0.82 seconds =       0.01 minutes
	total time  =          5 seconds =       0.08 minutes
Total time:
	user time   =      47.06 seconds =       0.78 minutes
	system time =       0.82 seconds =       0.01 minutes
	total time  =          5 seconds =       0.08 minutes
 MINTS: Wrapper to libmints.
   by Justin Turney

   Calculation information:
      Number of threads:                12
      Number of atoms:                   4
      Number of AO shells:              46
      Number of SO shells:              37
      Number of primitives:             82
      Number of atomic orbitals:       160
      Number of basis functions:       138

      Number of irreps:                  4
      Integral cutoff                 0.00e+00
      Number of functions per irrep: [  54   17   29   38 ]

 OEINTS: Overlap, kinetic, potential, dipole, and quadrupole integrals
         stored in file 35.

      Computing two-electron integrals...done
      Computed 11529920 non-zero two-electron integrals.
        Stored in file 33.


*** tstart() called on c4-4.compute.lan
*** at Wed Mar 10 10:52:48 2021


	Wfn Parameters:
	--------------------
	Wavefunction         = CCSD_T
	Number of irreps     = 4
	Number of MOs        = 138
	Number of active MOs = 136
	AO-Basis             = NONE
	Semicanonical        = false
	Reference            = UHF
	Print Level          = 1

	IRREP	# MOs	# FZDC	# DOCC	# SOCC	# VIRT	# FZVR
	-----	-----	------	------	------	------	------
	 A1	   54	    2	    4	    0	    48	    0
	 A2	   17	    0	    0	    0	    17	    0
	 B1	   29	    0	    1	    1	    27	    0
	 B2	   38	    0	    1	    1	    36	    0
	Transforming integrals...
	IWL integrals will be deleted.
	(OO|OO)...
	Presorting SO-basis two-electron integrals.
	Sorting File: SO Ints (nn|nn) nbuckets = 1
	Transforming the one-electron integrals and constructing Fock matrices
	Starting AA/AB first half-transformation.
	Sorting AA/AB half-transformed integrals.
	Starting BB first half-transformation.
	Sorting BB half-transformed integrals.
	First half integral transformation complete.
	Starting AA second half-transformation.
	Starting AB second half-transformation.
	Starting BB second half-transformation.
	Two-electron integral transformation complete.
	(OO|OV)...
	Starting AA second half-transformation.
	Starting AB second half-transformation.
	Starting BB second half-transformation.
	Two-electron integral transformation complete.
	(OO|VV)...
	Starting AA second half-transformation.
	Starting AB second half-transformation.
	Starting BB second half-transformation.
	Two-electron integral transformation complete.
	(OV|OO)...
	Starting AA/AB first half-transformation.
	Sorting AA/AB half-transformed integrals.
	Starting BB first half-transformation.
	Sorting BB half-transformed integrals.
	First half integral transformation complete.
	Starting AA second half-transformation.
	Starting AB second half-transformation.
	Starting BB second half-transformation.
	Two-electron integral transformation complete.
	(OV|OV)...
	Starting AA second half-transformation.
	Starting AB second half-transformation.
	Starting BB second half-transformation.
	Two-electron integral transformation complete.
	(OV|VV)...
	Starting AA second half-transformation.
	Starting AB second half-transformation.
	Starting BB second half-transformation.
	Two-electron integral transformation complete.
	(VV|OO)...
	Starting AA/AB first half-transformation.
	Sorting AA/AB half-transformed integrals.
	Starting BB first half-transformation.
	Sorting BB half-transformed integrals.
	First half integral transformation complete.
	Starting AA second half-transformation.
	Starting AB second half-transformation.
	Starting BB second half-transformation.
	Two-electron integral transformation complete.
	(VV|OV)...
	Starting AA second half-transformation.
	Starting AB second half-transformation.
	Starting BB second half-transformation.
	Two-electron integral transformation complete.
	(VV|VV)...
	Starting AA second half-transformation.
	Starting AB second half-transformation.
	Starting BB second half-transformation.
	Two-electron integral transformation complete.
	Frozen core energy     =   -125.45860467206015

	Size of irrep 0 of <AB|CD> integrals:      5.040 (MW) /     40.320 (MB)
	Size of irrep 1 of <AB|CD> integrals:      3.197 (MW) /     25.576 (MB)
	Size of irrep 2 of <AB|CD> integrals:      3.640 (MW) /     29.124 (MB)
	Size of irrep 3 of <AB|CD> integrals:      4.783 (MW) /     38.264 (MB)
	Total:                                    16.660 (MW) /    133.283 (MB)

	Size of irrep 0 of <ab|cd> integrals:      5.327 (MW) /     42.615 (MB)
	Size of irrep 1 of <ab|cd> integrals:      3.430 (MW) /     27.439 (MB)
	Size of irrep 2 of <ab|cd> integrals:      3.893 (MW) /     31.142 (MB)
	Size of irrep 3 of <ab|cd> integrals:      5.072 (MW) /     40.572 (MB)
	Total:                                    17.721 (MW) /    141.768 (MB)

	Size of irrep 0 of <Ab|Cd> integrals:     21.912 (MW) /    175.294 (MB)
	Size of irrep 1 of <Ab|Cd> integrals:     13.242 (MW) /    105.939 (MB)
	Size of irrep 2 of <Ab|Cd> integrals:     15.062 (MW) /    120.497 (MB)
	Size of irrep 3 of <Ab|Cd> integrals:     19.705 (MW) /    157.638 (MB)
	Total:                                    69.921 (MW) /    559.368 (MB)

	Size of irrep 0 of <IA|BC> integrals:      1.469 (MW) /     11.748 (MB)
	Size of irrep 1 of <IA|BC> integrals:      0.694 (MW) /      5.550 (MB)
	Size of irrep 2 of <IA|BC> integrals:      0.908 (MW) /      7.266 (MB)
	Size of irrep 3 of <IA|BC> integrals:      1.198 (MW) /      9.588 (MB)
	Total:                                     4.269 (MW) /     34.152 (MB)

	Size of irrep 0 of <ia|bc> integrals:      1.220 (MW) /      9.758 (MB)
	Size of irrep 1 of <ia|bc> integrals:      0.493 (MW) /      3.941 (MB)
	Size of irrep 2 of <ia|bc> integrals:      0.698 (MW) /      5.588 (MB)
	Size of irrep 3 of <ia|bc> integrals:      0.959 (MW) /      7.675 (MB)
	Total:                                     3.370 (MW) /     26.961 (MB)

	Size of irrep 0 of <Ia|Bc> integrals:      1.507 (MW) /     12.058 (MB)
	Size of irrep 1 of <Ia|Bc> integrals:      0.721 (MW) /      5.764 (MB)
	Size of irrep 2 of <Ia|Bc> integrals:      0.939 (MW) /      7.514 (MB)
	Size of irrep 3 of <Ia|Bc> integrals:      1.234 (MW) /      9.872 (MB)
	Total:                                     4.401 (MW) /     35.208 (MB)

	Size of irrep 0 of <iA|bC> integrals:      1.194 (MW) /      9.549 (MB)
	Size of irrep 1 of <iA|bC> integrals:      0.477 (MW) /      3.814 (MB)
	Size of irrep 2 of <iA|bC> integrals:      0.671 (MW) /      5.371 (MB)
	Size of irrep 3 of <iA|bC> integrals:      0.928 (MW) /      7.422 (MB)
	Total:                                     3.270 (MW) /     26.156 (MB)

	Size of irrep 0 of tIjAb amplitudes:       0.094 (MW) /      0.749 (MB)
	Size of irrep 1 of tIjAb amplitudes:       0.015 (MW) /      0.116 (MB)
	Size of irrep 2 of tIjAb amplitudes:       0.047 (MW) /      0.373 (MB)
	Size of irrep 3 of tIjAb amplitudes:       0.053 (MW) /      0.426 (MB)
	Total:                                     0.208 (MW) /      1.664 (MB)

	Nuclear Rep. energy          =     21.92758982077869
	SCF energy                   =   -150.87353845872855
	One-electron energy          =    -83.23776559040775
	Two-electron (AA) energy     =      9.94566137248093
	Two-electron (BB) energy     =      5.29245682588606
	Two-electron (AB) energy     =     20.65712378459243
	Two-electron energy          =     35.89524198295941
	Reference energy             =   -150.87353845872980

*** tstop() called on c4-4.compute.lan at Wed Mar 10 10:53:07 2021
Module time:
	user time   =      50.15 seconds =       0.84 minutes
	system time =       9.84 seconds =       0.16 minutes
	total time  =         19 seconds =       0.32 minutes
Total time:
	user time   =     102.65 seconds =       1.71 minutes
	system time =      11.02 seconds =       0.18 minutes
	total time  =         26 seconds =       0.43 minutes
            **************************
            *                        *
            *        CCENERGY        *
            *                        *
            **************************

    Nuclear Rep. energy (wfn)     =   21.927589820778692
    SCF energy          (wfn)     = -150.873538458728547
    Reference energy    (file100) = -150.873538458729797

    Input parameters:
    -----------------
    Wave function   =     CCSD_T
    Reference wfn   =     UHF
    Brueckner       =     No
    Memory (Mbytes) =     4000.0
    Maxiter         =     50
    R_Convergence   =     1.0e-10
    E_Convergence   =     1.0e-10
    Restart         =     Yes
    DIIS            =     Yes
    AO Basis        =     NONE
    ABCD            =     NEW
    Cache Level     =     2
    Cache Type      =     LRU
    Print Level     =     1
    Num. of threads =     12
    # Amps to Print =     10
    Print MP2 Amps? =     No
    Analyze T2 Amps =     No
    Print Pair Ener =     No
    Local CC        =     No
    SCS-MP2         =     False
    SCSN-MP2        =     False
    SCS-CCSD        =     False

MP2 correlation energy -0.4157779384491171
                Solving CC Amplitude Equations
                ------------------------------
  Iter             Energy              RMS        T1Diag      D1Diag    New D1Diag    D2Diag
  ----     ---------------------    ---------   ----------  ----------  ----------   --------
     0        -0.415777938449117    0.000e+00    0.000000    0.000000    0.000000    0.000000
     1        -0.426618284436639    5.643e-02    0.010370    0.000000    0.000000    0.000000
     2        -0.434714600002904    1.680e-02    0.010871    0.000000    0.000000    0.000000
     3        -0.436816021881676    8.417e-03    0.012689    0.000000    0.000000    0.000000
     4        -0.436692055276098    2.493e-03    0.013033    0.000000    0.000000    0.000000
     5        -0.436679993062310    1.259e-03    0.013175    0.000000    0.000000    0.000000
     6        -0.436705432107916    4.986e-04    0.013189    0.000000    0.000000    0.000000
     7        -0.436709565434445    2.249e-04    0.013179    0.000000    0.000000    0.000000
     8        -0.436710317504722    6.830e-05    0.013173    0.000000    0.000000    0.000000
     9        -0.436711535856653    2.793e-05    0.013172    0.000000    0.000000    0.000000
    10        -0.436710361607498    1.057e-05    0.013172    0.000000    0.000000    0.000000
    11        -0.436710472098203    5.227e-06    0.013172    0.000000    0.000000    0.000000
    12        -0.436710432634680    2.546e-06    0.013172    0.000000    0.000000    0.000000
    13        -0.436710426187715    1.366e-06    0.013172    0.000000    0.000000    0.000000
    14        -0.436710453159306    6.402e-07    0.013173    0.000000    0.000000    0.000000
    15        -0.436710451750194    1.727e-07    0.013173    0.000000    0.000000    0.000000
    16        -0.436710451618895    1.055e-07    0.013173    0.000000    0.000000    0.000000
    17        -0.436710452421486    2.986e-08    0.013173    0.000000    0.000000    0.000000
    18        -0.436710452002260    1.373e-08    0.013173    0.000000    0.000000    0.000000
    19        -0.436710451767015    4.286e-09    0.013173    0.000000    0.000000    0.000000
    20        -0.436710451743648    1.832e-09    0.013173    0.000000    0.000000    0.000000
    21        -0.436710451729767    7.559e-10    0.013173    0.000000    0.000000    0.000000
    22        -0.436710451728630    3.093e-10    0.013173    0.000000    0.000000    0.000000
    23        -0.436710451731584    1.404e-10    0.013173    0.000000    0.000000    0.000000
    24        -0.436710451730889    7.342e-11    0.013173    0.000000    0.000000    0.000000

    Iterations converged.


    Largest TIA Amplitudes:
              5  67        -0.0137036964
              5  65        -0.0121574826
              2   2         0.0098513526
              5  66        -0.0088019272
              6  93        -0.0087359788
              4  65        -0.0083293347
              3   6        -0.0076599451
              3   1         0.0060371494
              2   6        -0.0057756665
              2   4        -0.0054106003

    Largest Tia Amplitudes:
              4  68        -0.0137725049
              4  66        -0.0133575224
              2   6        -0.0088508127
              4  65        -0.0078504719
              2   2         0.0065697185
              3   2        -0.0057872102
              2   1         0.0053317580
              5 109         0.0051080813
              1  11        -0.0050667749
              4  82         0.0042923970

    Largest TIJAB Amplitudes:
      6   4 100  70         0.0170898375
      4   2  70  12         0.0124510739
      6   2 100  12        -0.0123974999
      6   4  55  22        -0.0114745277
      7   5  50  10        -0.0089277883
      6   4 115  81         0.0086523311
      7   3  97   6        -0.0085913565
      6   4 100  81        -0.0085884156
      4   0  70  18         0.0085641915
      6   0 100  18        -0.0085258790

    Largest Tijab Amplitudes:
      5   4  50  10        -0.0087370853
      5   2  99   6        -0.0082787938
      3   1  78  65        -0.0078929286
      4   2  70  10         0.0075656008
      3   1  69  65        -0.0075026274
      5   2 100   8        -0.0074868572
      5   4  99  68        -0.0074739518
      5   4  53  10        -0.0074640876
      5   4  99  71        -0.0074448633
      5   4  99  74        -0.0071115423

    Largest TIjAb Amplitudes:
      7   5  97  99        -0.0196696316
      2   3  12  12         0.0172889587
      4   3  70  12        -0.0169207676
      6   3 100  12         0.0167697682
      4   1  22  65         0.0166300748
      6   1  55  65         0.0166036470
      2   1  77  65         0.0164999224
      4   1  70  18        -0.0157914808
      6   1 100  18         0.0156848181
      7   5 103  99        -0.0151510368

    SCF energy       (wfn)                    = -150.873538458728547
    Reference energy (file100)                = -150.873538458729797

    Opposite-spin MP2 correlation energy      =   -0.314184957603743
    Same-spin MP2 correlation energy          =   -0.101592980845374
    MP2 correlation energy                    =   -0.415777938449117
      * MP2 total energy                      = -151.289316397178908

    Opposite-spin CCSD correlation energy     =   -0.341860979565487
    Same-spin CCSD correlation energy         =   -0.094849472165402
    CCSD correlation energy                   =   -0.436710451730889
      * CCSD total energy                     = -151.310248910460700

            **************************
            *                        *
            *        CCTRIPLES       *
            *                        *
            **************************


    Wave function   =    CCSD_T
    Reference wfn   =      UHF

    Nuclear Rep. energy (wfn)                =   21.927589820778692
    SCF energy          (wfn)                = -150.873538458728547
    Reference energy    (file100)            = -150.873538458729797
    CCSD energy         (file100)            =   -0.436710451730889
    Total CCSD energy   (file100)            = -151.310248910460700

    Number of ijk index combinations:
    Spin Case AAA:                                  56
    Spin Case BBB:                                  20
    Spin Case AAB:                                 168
    Spin Case ABB:                                 120
    AAA (T) energy                             =   -0.000392762031772
    BBB (T) energy                             =   -0.000198186311816
    AAB (T) energy                             =   -0.006681551480903
    ABB (T) energy                             =   -0.004952568843395
    (T) energy                                   =   -0.012225068667886
      * CCSD(T) total energy                     = -151.322473979128574

Stephenergy -151.32247397912857
    Psi4 stopped on: Wednesday, 10 March 2021 10:54AM
    Psi4 wall time for execution: 0:01:24.42

*** Psi4 exiting successfully. Buy a developer a beer!
