
    -----------------------------------------------------------------------
          Psi4: An Open-Source Ab Initio Electronic Structure Package
                               Psi4 1.3.2 release

                         Git: Rev {HEAD} ecbda83 


    R. M. Parrish, L. A. Burns, D. G. A. Smith, A. C. Simmonett,
    A. E. DePrince III, E. G. Hohenstein, U. Bozkaya, A. Yu. Sokolov,
    R. Di Remigio, R. M. Richard, J. F. Gonthier, A. M. James,
    H. R. McAlexander, A. Kumar, M. Saitow, X. Wang, B. P. Pritchard,
    P. Verma, H. F. Schaefer III, K. Patkowski, R. A. King, E. F. Valeev,
    F. A. Evangelista, J. M. Turney, T. D. Crawford, and C. D. Sherrill,
    J. Chem. Theory Comput. 13(7) pp 3185--3197 (2017).
    (doi: 10.1021/acs.jctc.7b00174)


                         Additional Contributions by
    P. Kraus, H. Kruse, M. H. Lechner, M. C. Schieber, R. A. Shaw,
    A. Alenaizan, R. Galvelis, Z. L. Glick, S. Lehtola, and J. P. Misiewicz

    -----------------------------------------------------------------------


    Psi4 started on: Monday, 08 March 2021 05:44PM

    Process ID: 61845
    Host:       c2-13.compute.lan
    PSIDATADIR: /apps/gb/PSI4/1.3.2/share/psi4
    Memory:     500.0 MiB
    Threads:    12
    
  ==> Input File <==

--------------------------------------------------------------------------
memory 4 GB

molecule  {
0 3
O    0.000000000000    0.000000000000    1.270170376200
H    0.000000000000   -0.759829054300    1.859547910400
H   -0.000000000000    0.759829054300    1.859547910400
O    0.000000000000   -0.000000000000   -1.504507223600
}
set {
basis aug-cc-pvtz
reference uhf
e_convergence 10
scf_type pk
freeze_core true
}

set ccenergy {
e_convergence 10
r_convergence 10
}

e = energy('ccsd(t)')

print_out('Stephenergy {}'.format(e))

--------------------------------------------------------------------------

  Memory set to   3.725 GiB by Python driver.

*** tstart() called on c2-13.compute.lan
*** at Mon Mar  8 17:44:17 2021

   => Loading Basis Set <=

    Name: AUG-CC-PVTZ
    Role: ORBITAL
    Keyword: BASIS
    atoms 1, 4 entry O          line   327 file /apps/gb/PSI4/1.3.2/share/psi4/basis/aug-cc-pvtz.gbs 
    atoms 2-3  entry H          line    36 file /apps/gb/PSI4/1.3.2/share/psi4/basis/aug-cc-pvtz.gbs 


         ---------------------------------------------------------
                                   SCF
               by Justin Turney, Rob Parrish, Andy Simmonett
                          and Daniel G. A. Smith
                              UHF Reference
                       12 Threads,   3814 MiB Core
         ---------------------------------------------------------

  ==> Geometry <==

    Molecular point group: c2v
    Full point group: C2v

    Geometry (in Angstrom), charge = 0, multiplicity = 3:

       Center              X                  Y                   Z               Mass       
    ------------   -----------------  -----------------  -----------------  -----------------
         O            0.000000000000     0.000000000000     1.270170376227    15.994914619570
         H            0.000000000000    -0.759829054300     1.859547910427     1.007825032230
         H           -0.000000000000     0.759829054300     1.859547910427     1.007825032230
         O            0.000000000000     0.000000000000    -1.504507223573    15.994914619570

  Running in c2v symmetry.

  Rotational constants: A =     14.48604  B =      0.24438  C =      0.24033 [cm^-1]
  Rotational constants: A = 434280.44127  B =   7326.43217  C =   7204.88377 [MHz]
  Nuclear repulsion =   23.813892513165690

  Charge       = 0
  Multiplicity = 3
  Electrons    = 18
  Nalpha       = 10
  Nbeta        = 8

  ==> Algorithm <==

  SCF Algorithm Type is PK.
  DIIS enabled.
  MOM disabled.
  Fractional occupation disabled.
  Guess Type is SAD.
  Energy threshold   = 1.00e-10
  Density threshold  = 1.00e-08
  Integral threshold = 0.00e+00

  ==> Primary Basis <==

  Basis Set: AUG-CC-PVTZ
    Blend: AUG-CC-PVTZ
    Number of shells: 46
    Number of basis function: 138
    Number of Cartesian functions: 160
    Spherical Harmonics?: true
    Max angular momentum: 3

  ==> Pre-Iterations <==

   -------------------------------------------------------
    Irrep   Nso     Nmo     Nalpha   Nbeta   Ndocc  Nsocc
   -------------------------------------------------------
     A1        54      54       0       0       0       0
     A2        17      17       0       0       0       0
     B1        29      29       0       0       0       0
     B2        38      38       0       0       0       0
   -------------------------------------------------------
    Total     138     138      10       8       8       2
   -------------------------------------------------------

  ==> Integral Setup <==

  Using in-core PK algorithm.
   Calculation information:
      Number of atoms:                   4
      Number of AO shells:              46
      Number of primitives:             82
      Number of atomic orbitals:       160
      Number of basis functions:       138

      Integral cutoff                 1.00e-12
      Number of threads:                12

  Performing in-core PK
  Using 91996872 doubles for integral storage.
  We computed 909550 shell quartets total.
  Whereas there are 584821 unique shell quartets.
    55.53 percent of shell quartets recomputed by reordering.

  ==> DiskJK: Disk-Based J/K Matrices <==

    J tasked:                  Yes
    K tasked:                  Yes
    wK tasked:                  No
    Memory [MiB]:             2861
    Schwarz Cutoff:          1E-12

    OpenMP threads:             12

  Minimum eigenvalue in the overlap matrix is 3.2360645228E-04.
  Using Symmetric Orthogonalization.

  SCF Guess: Superposition of Atomic Densities via on-the-fly atomic UHF.

  ==> Iterations <==

                        Total Energy        Delta E     RMS |[F,P]|

   @UHF iter SAD:  -149.38139871021042   -1.49381e+02   0.00000e+00 
   @UHF iter   1:  -150.76989278729565   -1.38849e+00   6.69773e-03 DIIS
   @UHF iter   2:  -150.84065056419939   -7.07578e-02   4.25853e-03 DIIS
   @UHF iter   3:  -150.87197962807147   -3.13291e-02   5.58880e-04 DIIS
   @UHF iter   4:  -150.87335392237679   -1.37429e-03   1.71111e-04 DIIS
   @UHF iter   5:  -150.87348805306536   -1.34131e-04   6.98282e-05 DIIS
   @UHF iter   6:  -150.87352118463383   -3.31316e-05   2.08615e-05 DIIS
   @UHF iter   7:  -150.87352428879436   -3.10416e-06   5.36206e-06 DIIS
   @UHF iter   8:  -150.87352451365769   -2.24863e-07   1.49236e-06 DIIS
   @UHF iter   9:  -150.87352453062510   -1.69674e-08   3.70712e-07 DIIS
   @UHF iter  10:  -150.87352453173483   -1.10973e-09   1.78274e-07 DIIS
   @UHF iter  11:  -150.87352453208103   -3.46205e-10   6.94751e-08 DIIS
   @UHF iter  12:  -150.87352453213521   -5.41718e-11   1.49180e-08 DIIS
   @UHF iter  13:  -150.87352453213714   -1.93268e-12   4.47075e-09 DIIS
  Energy and wave function converged.


  ==> Post-Iterations <==

   @Spin Contamination Metric:   9.530490432E-03
   @S^2 Expected:                2.000000000E+00
   @S^2 Observed:                2.009530490E+00
   @S   Expected:                1.000000000E+00
   @S   Observed:                1.000000000E+00

    Orbital Energies [Eh]
    ---------------------

    Alpha Occupied:                                                       

       1A1   -20.684529     2A1   -20.571198     3A1    -1.393949  
       4A1    -1.355275     1B2    -0.718715     5A1    -0.688198  
       1B1    -0.685251     6A1    -0.586446     2B2    -0.586261  
       2B1    -0.513968  

    Alpha Virtual:                                                        

       7A1     0.029553     3B2     0.047672     8A1     0.118599  
       3B1     0.154050     9A1     0.159470     4B2     0.180289  
       5B2     0.186920     4B1     0.192748    10A1     0.198009  
       1A2     0.263712     6B2     0.264044    11A1     0.264766  
      12A1     0.314357     5B1     0.326715    13A1     0.376040  
       7B2     0.380350    14A1     0.449980     8B2     0.464333  
       9B2     0.599991     6B1     0.643617    15A1     0.647420  
       2A2     0.658158    16A1     0.666513    17A1     0.696152  
       3A2     0.721700    10B2     0.722500     7B1     0.767507  
      18A1     0.792753    19A1     0.818540     8B1     0.837801  
      20A1     0.861027     9B1     0.901226    11B2     0.918620  
       4A2     0.924714    12B2     0.946260    13B2     0.979677  
      21A1     0.989724    10B1     1.012606    22A1     1.046345  
      14B2     1.051367    11B1     1.121927     5A2     1.176716  
      23A1     1.191615    15B2     1.198747    16B2     1.326823  
      24A1     1.336496    25A1     1.443289     6A2     1.507249  
      12B1     1.594013    26A1     1.666487    27A1     1.812432  
      17B2     1.822052    18B2     1.976763    28A1     2.040756  
      13B1     2.047759    19B2     2.054050     7A2     2.056759  
      14B1     2.058909    29A1     2.079168    30A1     2.114900  
       8A2     2.118691    20B2     2.135180    31A1     2.140243  
      15B1     2.145199    32A1     2.252109    21B2     2.267147  
      16B1     2.303360     9A2     2.311825    17B1     2.434024  
      33A1     2.470079    22B2     2.482252    34A1     2.486237  
      35A1     2.695608    18B1     2.715927    23B2     2.720832  
      36A1     2.839924    24B2     2.862088    10A2     2.880094  
      25B2     3.690621    37A1     3.753163    11A2     4.013187  
      19B1     4.079385    20B1     4.099244    38A1     4.139923  
      26B2     4.183227    27B2     4.281030    21B1     4.289276  
      39A1     4.350920    12A2     4.381628    40A1     4.427334  
      22B1     4.450999    28B2     4.515217    41A1     4.788494  
      29B2     4.839445    30B2     5.141317    13A2     5.144042  
      31B2     5.247823    42A1     5.339506    23B1     5.515830  
      43A1     5.683785    44A1     6.198390    24B1     6.388925  
      45A1     6.408847    14A2     6.410138    32B2     6.423576  
      25B1     6.435491    33B2     6.485540    46A1     6.535697  
      34B2     6.581823    26B1     6.716101    27B1     6.902276  
      47A1     6.905558    15A2     6.924506    48A1     6.939619  
      35B2     6.985625    49A1     7.046579    28B1     7.134794  
      29B1     7.277992    16A2     7.305842    36B2     7.308494  
      17A2     7.352279    50A1     7.437878    51A1     7.542051  
      52A1     7.908615    37B2     7.915298    38B2     8.804315  
      53A1     8.860236    54A1    15.769565  

    Beta Occupied:                                                        

       1A1   -20.605663     2A1   -20.570737     3A1    -1.354589  
       4A1    -1.051143     1B2    -0.718386     5A1    -0.588174  
       1B1    -0.513308     2B2    -0.495680  

    Beta Virtual:                                                         

       6A1     0.029392     3B2     0.047752     2B1     0.086504  
       7A1     0.091923     8A1     0.140939     9A1     0.167039  
       3B1     0.170625     4B2     0.180919     5B2     0.190508  
      10A1     0.225534     4B1     0.253278     1A2     0.263714  
       6B2     0.264491    11A1     0.288395    12A1     0.316748  
       5B1     0.328018     7B2     0.380522    13A1     0.386386  
      14A1     0.451065     8B2     0.464528     9B2     0.601608  
      15A1     0.660468     6B1     0.667436     2A2     0.672579  
      16A1     0.673622    17A1     0.713390     3A2     0.722165  
      10B2     0.734711     7B1     0.778774    18A1     0.806054  
       8B1     0.846936    19A1     0.850668     4A2     0.925101  
      20A1     0.928060    11B2     0.936369    12B2     0.953320  
      13B2     0.983418     9B1     0.986618    21A1     0.996887  
      14B2     1.052477    22A1     1.052499    10B1     1.060418  
      11B1     1.137955     5A2     1.176912    23A1     1.193106  
      15B2     1.201473    16B2     1.329218    24A1     1.393130  
      25A1     1.482667     6A2     1.507667    12B1     1.595983  
      26A1     1.696643    27A1     1.817453    17B2     1.822386  
      18B2     1.978153    28A1     2.070277    13B1     2.070814  
      19B2     2.071475     7A2     2.081398    29A1     2.099458  
      14B1     2.100298    30A1     2.155517    20B2     2.180879  
       8A2     2.201912    31A1     2.207662    15B1     2.258254  
      32A1     2.308894     9A2     2.311958    21B2     2.318949  
      16B1     2.319202    17B1     2.441856    33A1     2.483152  
      22B2     2.485131    34A1     2.514766    35A1     2.702988  
      18B1     2.717628    23B2     2.721733    36A1     2.852045  
      24B2     2.862270    10A2     2.880127    25B2     3.691489  
      37A1     3.753297    11A2     4.013215    19B1     4.081708  
      38A1     4.172079    26B2     4.218711    20B1     4.259603  
      27B2     4.292027    21B1     4.294012    12A2     4.381733  
      39A1     4.426201    22B1     4.456134    40A1     4.467715  
      28B2     4.515294    41A1     4.799273    29B2     4.839600  
      30B2     5.141496    13A2     5.144116    31B2     5.248229  
      42A1     5.340152    23B1     5.515940    43A1     5.688287  
      44A1     6.200041    24B1     6.485596    14A2     6.486968  
      32B2     6.487752    45A1     6.493071    25B1     6.499205  
      33B2     6.521136    46A1     6.607354    34B2     6.609760  
      26B1     6.722958    47A1     6.955031    15A2     7.038058  
      48A1     7.041919    27B1     7.084835    35B2     7.097486  
      28B1     7.135196    49A1     7.173945    29B1     7.282128  
      16A2     7.306108    36B2     7.308678    17A2     7.352690  
      50A1     7.440636    51A1     7.543124    52A1     7.909176  
      37B2     7.915646    38B2     8.804684    53A1     8.939660  
      54A1    15.769882  

    Final Occupation by Irrep:
             A1    A2    B1    B2 
    DOCC [     5,    0,    1,    2 ]
    SOCC [     1,    0,    1,    0 ]

  @UHF Final Energy:  -150.87352453213714

   => Energetics <=

    Nuclear Repulsion Energy =             23.8138925131656904
    One-Electron Energy =                -255.6933656749985175
    Two-Electron Energy =                  81.0059486296956948
    Total Energy =                       -150.8735245321371394

  UHF NO Occupations:
  HONO-2 :    5 A1 1.9970493
  HONO-1 :    2 B1 1.0000000
  HONO-0 :    6 A1 1.0000000
  LUNO+0 :    7 A1 0.0029507
  LUNO+1 :    3 B2 0.0017949
  LUNO+2 :    8 A1 0.0000216
  LUNO+3 :    9 A1 0.0000024


Computation Completed


Properties will be evaluated at   0.000000,   0.000000,   0.000000 [a0]

Properties computed using the SCF density matrix

  Nuclear Dipole Moment: [e a0]
     X:     0.0000      Y:     0.0000      Z:     3.4854

  Electronic Dipole Moment: [e a0]
     X:     0.0000      Y:     0.0000      Z:    -2.6490

  Dipole Moment: [e a0]
     X:     0.0000      Y:     0.0000      Z:     0.8364     Total:     0.8364

  Dipole Moment: [D]
     X:     0.0000      Y:     0.0000      Z:     2.1259     Total:     2.1259


*** tstop() called on c2-13.compute.lan at Mon Mar  8 17:44:23 2021
Module time:
	user time   =      42.28 seconds =       0.70 minutes
	system time =       3.43 seconds =       0.06 minutes
	total time  =          6 seconds =       0.10 minutes
Total time:
	user time   =      42.28 seconds =       0.70 minutes
	system time =       3.43 seconds =       0.06 minutes
	total time  =          6 seconds =       0.10 minutes
 MINTS: Wrapper to libmints.
   by Justin Turney

   Calculation information:
      Number of threads:                12
      Number of atoms:                   4
      Number of AO shells:              46
      Number of SO shells:              37
      Number of primitives:             82
      Number of atomic orbitals:       160
      Number of basis functions:       138

      Number of irreps:                  4
      Integral cutoff                 0.00e+00
      Number of functions per irrep: [  54   17   29   38 ]

 OEINTS: Overlap, kinetic, potential, dipole, and quadrupole integrals
         stored in file 35.

      Computing two-electron integrals...done
      Computed 11336311 non-zero two-electron integrals.
        Stored in file 33.


*** tstart() called on c2-13.compute.lan
*** at Mon Mar  8 17:44:26 2021


	Wfn Parameters:
	--------------------
	Wavefunction         = CCSD_T
	Number of irreps     = 4
	Number of MOs        = 138
	Number of active MOs = 136
	AO-Basis             = NONE
	Semicanonical        = false
	Reference            = UHF
	Print Level          = 1

	IRREP	# MOs	# FZDC	# DOCC	# SOCC	# VIRT	# FZVR
	-----	-----	------	------	------	------	------
	 A1	   54	    2	    3	    1	    48	    0
	 A2	   17	    0	    0	    0	    17	    0
	 B1	   29	    0	    1	    1	    27	    0
	 B2	   38	    0	    2	    0	    36	    0
	Transforming integrals...
	IWL integrals will be deleted.
	(OO|OO)...
	Presorting SO-basis two-electron integrals.
	Sorting File: SO Ints (nn|nn) nbuckets = 1
	Transforming the one-electron integrals and constructing Fock matrices
	Starting AA/AB first half-transformation.
	Sorting AA/AB half-transformed integrals.
	Starting BB first half-transformation.
	Sorting BB half-transformed integrals.
	First half integral transformation complete.
	Starting AA second half-transformation.
	Starting AB second half-transformation.
	Starting BB second half-transformation.
	Two-electron integral transformation complete.
	(OO|OV)...
	Starting AA second half-transformation.
	Starting AB second half-transformation.
	Starting BB second half-transformation.
	Two-electron integral transformation complete.
	(OO|VV)...
	Starting AA second half-transformation.
	Starting AB second half-transformation.
	Starting BB second half-transformation.
	Two-electron integral transformation complete.
	(OV|OO)...
	Starting AA/AB first half-transformation.
	Sorting AA/AB half-transformed integrals.
	Starting BB first half-transformation.
	Sorting BB half-transformed integrals.
	First half integral transformation complete.
	Starting AA second half-transformation.
	Starting AB second half-transformation.
	Starting BB second half-transformation.
	Two-electron integral transformation complete.
	(OV|OV)...
	Starting AA second half-transformation.
	Starting AB second half-transformation.
	Starting BB second half-transformation.
	Two-electron integral transformation complete.
	(OV|VV)...
	Starting AA second half-transformation.
	Starting AB second half-transformation.
	Starting BB second half-transformation.
	Two-electron integral transformation complete.
	(VV|OO)...
	Starting AA/AB first half-transformation.
	Sorting AA/AB half-transformed integrals.
	Starting BB first half-transformation.
	Sorting BB half-transformed integrals.
	First half integral transformation complete.
	Starting AA second half-transformation.
	Starting AB second half-transformation.
	Starting BB second half-transformation.
	Two-electron integral transformation complete.
	(VV|OV)...
	Starting AA second half-transformation.
	Starting AB second half-transformation.
	Starting BB second half-transformation.
	Two-electron integral transformation complete.
	(VV|VV)...
	Starting AA second half-transformation.
	Starting AB second half-transformation.
	Starting BB second half-transformation.
	Two-electron integral transformation complete.
	Frozen core energy     =   -126.36578349712458

	Size of irrep 0 of <AB|CD> integrals:      5.040 (MW) /     40.320 (MB)
	Size of irrep 1 of <AB|CD> integrals:      3.197 (MW) /     25.576 (MB)
	Size of irrep 2 of <AB|CD> integrals:      3.640 (MW) /     29.124 (MB)
	Size of irrep 3 of <AB|CD> integrals:      4.783 (MW) /     38.264 (MB)
	Total:                                    16.660 (MW) /    133.283 (MB)

	Size of irrep 0 of <ab|cd> integrals:      5.382 (MW) /     43.059 (MB)
	Size of irrep 1 of <ab|cd> integrals:      3.389 (MW) /     27.114 (MB)
	Size of irrep 2 of <ab|cd> integrals:      3.936 (MW) /     31.490 (MB)
	Size of irrep 3 of <ab|cd> integrals:      5.018 (MW) /     40.141 (MB)
	Total:                                    17.726 (MW) /    141.804 (MB)

	Size of irrep 0 of <Ab|Cd> integrals:     22.024 (MW) /    176.194 (MB)
	Size of irrep 1 of <Ab|Cd> integrals:     13.170 (MW) /    105.357 (MB)
	Size of irrep 2 of <Ab|Cd> integrals:     15.140 (MW) /    121.119 (MB)
	Size of irrep 3 of <Ab|Cd> integrals:     19.598 (MW) /    156.787 (MB)
	Total:                                    69.932 (MW) /    559.457 (MB)

	Size of irrep 0 of <IA|BC> integrals:      1.469 (MW) /     11.748 (MB)
	Size of irrep 1 of <IA|BC> integrals:      0.694 (MW) /      5.550 (MB)
	Size of irrep 2 of <IA|BC> integrals:      0.908 (MW) /      7.266 (MB)
	Size of irrep 3 of <IA|BC> integrals:      1.198 (MW) /      9.588 (MB)
	Total:                                     4.269 (MW) /     34.152 (MB)

	Size of irrep 0 of <ia|bc> integrals:      1.178 (MW) /      9.426 (MB)
	Size of irrep 1 of <ia|bc> integrals:      0.527 (MW) /      4.212 (MB)
	Size of irrep 2 of <ia|bc> integrals:      0.663 (MW) /      5.301 (MB)
	Size of irrep 3 of <ia|bc> integrals:      0.999 (MW) /      7.992 (MB)
	Total:                                     3.366 (MW) /     26.931 (MB)

	Size of irrep 0 of <Ia|Bc> integrals:      1.521 (MW) /     12.164 (MB)
	Size of irrep 1 of <Ia|Bc> integrals:      0.711 (MW) /      5.690 (MB)
	Size of irrep 2 of <Ia|Bc> integrals:      0.949 (MW) /      7.595 (MB)
	Size of irrep 3 of <Ia|Bc> integrals:      1.222 (MW) /      9.775 (MB)
	Total:                                     4.403 (MW) /     35.225 (MB)

	Size of irrep 0 of <iA|bC> integrals:      1.140 (MW) /      9.123 (MB)
	Size of irrep 1 of <iA|bC> integrals:      0.512 (MW) /      4.094 (MB)
	Size of irrep 2 of <iA|bC> integrals:      0.634 (MW) /      5.074 (MB)
	Size of irrep 3 of <iA|bC> integrals:      0.978 (MW) /      7.827 (MB)
	Total:                                     3.265 (MW) /     26.118 (MB)

	Size of irrep 0 of tIjAb amplitudes:       0.084 (MW) /      0.676 (MB)
	Size of irrep 1 of tIjAb amplitudes:       0.022 (MW) /      0.174 (MB)
	Size of irrep 2 of tIjAb amplitudes:       0.039 (MW) /      0.311 (MB)
	Size of irrep 3 of tIjAb amplitudes:       0.062 (MW) /      0.496 (MB)
	Total:                                     0.207 (MW) /      1.657 (MB)

	Nuclear Rep. energy          =     23.81389251316569
	SCF energy                   =   -150.87352453213714
	One-electron energy          =    -85.39392531301543
	Two-electron (AA) energy     =     10.36147018376529
	Two-electron (BB) energy     =      5.46567815954637
	Two-electron (AB) energy     =     21.24514342152456
	Two-electron energy          =     37.07229176483622
	Reference energy             =   -150.87352453213811

*** tstop() called on c2-13.compute.lan at Mon Mar  8 17:45:27 2021
Module time:
	user time   =     463.48 seconds =       7.72 minutes
	system time =      31.68 seconds =       0.53 minutes
	total time  =         61 seconds =       1.02 minutes
Total time:
	user time   =     510.92 seconds =       8.52 minutes
	system time =      35.71 seconds =       0.60 minutes
	total time  =         70 seconds =       1.17 minutes
            **************************
            *                        *
            *        CCENERGY        *
            *                        *
            **************************

    Nuclear Rep. energy (wfn)     =   23.813892513165690
    SCF energy          (wfn)     = -150.873524532137139
    Reference energy    (file100) = -150.873524532138106

    Input parameters:
    -----------------
    Wave function   =     CCSD_T
    Reference wfn   =     UHF
    Brueckner       =     No
    Memory (Mbytes) =     4000.0
    Maxiter         =     50
    R_Convergence   =     1.0e-10
    E_Convergence   =     1.0e-10
    Restart         =     Yes
    DIIS            =     Yes
    AO Basis        =     NONE
    ABCD            =     NEW
    Cache Level     =     2
    Cache Type      =     LRU
    Print Level     =     1
    Num. of threads =     12
    # Amps to Print =     10
    Print MP2 Amps? =     No
    Analyze T2 Amps =     No
    Print Pair Ener =     No
    Local CC        =     No
    SCS-MP2         =     False
    SCSN-MP2        =     False
    SCS-CCSD        =     False

MP2 correlation energy -0.4162741450084879
                Solving CC Amplitude Equations
                ------------------------------
  Iter             Energy              RMS        T1Diag      D1Diag    New D1Diag    D2Diag
  ----     ---------------------    ---------   ----------  ----------  ----------   --------
     0        -0.416274145008488    0.000e+00    0.000000    0.000000    0.000000    0.000000
     1        -0.427054224434258    5.698e-02    0.010579    0.000000    0.000000    0.000000
     2        -0.435151339102015    1.703e-02    0.011073    0.000000    0.000000    0.000000
     3        -0.437302833916401    8.772e-03    0.012994    0.000000    0.000000    0.000000
     4        -0.437176418581784    2.680e-03    0.013403    0.000000    0.000000    0.000000
     5        -0.437166928709920    1.394e-03    0.013595    0.000000    0.000000    0.000000
     6        -0.437195992440412    5.294e-04    0.013621    0.000000    0.000000    0.000000
     7        -0.437198966250630    2.145e-04    0.013615    0.000000    0.000000    0.000000
     8        -0.437199906268809    6.677e-05    0.013610    0.000000    0.000000    0.000000
     9        -0.437200591577297    2.385e-05    0.013610    0.000000    0.000000    0.000000
    10        -0.437199692455215    9.218e-06    0.013610    0.000000    0.000000    0.000000
    11        -0.437199858010616    3.998e-06    0.013609    0.000000    0.000000    0.000000
    12        -0.437199818321137    1.444e-06    0.013610    0.000000    0.000000    0.000000
    13        -0.437199826239826    7.300e-07    0.013610    0.000000    0.000000    0.000000
    14        -0.437199848792487    3.045e-07    0.013610    0.000000    0.000000    0.000000
    15        -0.437199850490727    1.109e-07    0.013610    0.000000    0.000000    0.000000
    16        -0.437199851062109    4.968e-08    0.013610    0.000000    0.000000    0.000000
    17        -0.437199851639884    1.915e-08    0.013610    0.000000    0.000000    0.000000
    18        -0.437199851497485    9.943e-09    0.013610    0.000000    0.000000    0.000000
    19        -0.437199851289810    3.928e-09    0.013610    0.000000    0.000000    0.000000
    20        -0.437199851279144    2.121e-09    0.013610    0.000000    0.000000    0.000000
    21        -0.437199851255867    8.107e-10    0.013610    0.000000    0.000000    0.000000
    22        -0.437199851254317    3.261e-10    0.013610    0.000000    0.000000    0.000000
    23        -0.437199851253360    1.692e-10    0.013610    0.000000    0.000000    0.000000
    24        -0.437199851253199    6.941e-11    0.013610    0.000000    0.000000    0.000000

    Iterations converged.


    Largest TIA Amplitudes:
              5  65        -0.0133341905
              5  67        -0.0111766771
              7  94         0.0103643367
              5  66        -0.0097199021
              4  65        -0.0074633176
              3   1         0.0074080851
              2   3         0.0072092695
              4  66         0.0071610074
              3   5        -0.0055963099
              3   6         0.0053875430

    Largest Tia Amplitudes:
              3  67        -0.0148348986
              2   2         0.0134216637
              3  69        -0.0107902374
              5  96         0.0079595726
              3  66        -0.0076695561
              2   1        -0.0068081017
              2   7         0.0056047833
              2   6        -0.0055721968
              1  25        -0.0054438879
              4 109         0.0053917181

    Largest TIJAB Amplitudes:
      7   4 100  71         0.0142772513
      7   4  55  23        -0.0135871457
      7   2 100  12        -0.0121384193
      4   2  71  12         0.0110283543
      6   5  50   9        -0.0086544678
      7   4  49  23         0.0082504828
      6   5  97  72        -0.0080798338
      7   4  94  71         0.0078457751
      7   4  55   8        -0.0076276681
      7   4 100  82        -0.0073816500

    Largest Tijab Amplitudes:
      5   1  66  56         0.0086752660
      5   1  66  50        -0.0085728312
      5   1  68  56         0.0081614250
      4   3  99  67        -0.0076501195
      5   1  68  50        -0.0074579151
      4   3  99  73        -0.0073224128
      4   2  99   2         0.0071818814
      4   2  99  12         0.0068622165
      4   2 100   9        -0.0067270756
      4   3  51  10        -0.0065447145

    Largest TIjAb Amplitudes:
      7   5 100 103        -0.0218798497
      6   4  97  99        -0.0218278439
      7   5 100 102         0.0188330114
      7   1  55  66        -0.0180644218
      7   5 100  96        -0.0170634969
      7   1  55  68        -0.0168461570
      4   1  23  66        -0.0167261186
      5   3  72  73        -0.0162573403
      4   1  23  68        -0.0155577490
      7   5  55  56        -0.0145655356

    SCF energy       (wfn)                    = -150.873524532137139
    Reference energy (file100)                = -150.873524532138106

    Opposite-spin MP2 correlation energy      =   -0.314432826278887
    Same-spin MP2 correlation energy          =   -0.101841318729601
    MP2 correlation energy                    =   -0.416274145008488
      * MP2 total energy                      = -151.289798677146592

    Opposite-spin CCSD correlation energy     =   -0.342092244846354
    Same-spin CCSD correlation energy         =   -0.095107606406845
    CCSD correlation energy                   =   -0.437199851253199
      * CCSD total energy                     = -151.310724383391317

            **************************
            *                        *
            *        CCTRIPLES       *
            *                        *
            **************************


    Wave function   =    CCSD_T
    Reference wfn   =      UHF

    Nuclear Rep. energy (wfn)                =   23.813892513165690
    SCF energy          (wfn)                = -150.873524532137139
    Reference energy    (file100)            = -150.873524532138106
    CCSD energy         (file100)            =   -0.437199851253199
    Total CCSD energy   (file100)            = -151.310724383391317

    Number of ijk index combinations:
    Spin Case AAA:                                  56
    Spin Case BBB:                                  20
    Spin Case AAB:                                 168
    Spin Case ABB:                                 120
    AAA (T) energy                             =   -0.000395720247775
    BBB (T) energy                             =   -0.000202137007908
    AAB (T) energy                             =   -0.006709943273892
    ABB (T) energy                             =   -0.004985143785005
    (T) energy                                   =   -0.012292944314580
      * CCSD(T) total energy                     = -151.323017327705884

Stephenergy -151.32301732770588
    Psi4 stopped on: Monday, 08 March 2021 05:46PM
    Psi4 wall time for execution: 0:02:21.35

*** Psi4 exiting successfully. Buy a developer a beer!
