
    -----------------------------------------------------------------------
          Psi4: An Open-Source Ab Initio Electronic Structure Package
                               Psi4 1.3.2 release

                         Git: Rev {HEAD} ecbda83 


    R. M. Parrish, L. A. Burns, D. G. A. Smith, A. C. Simmonett,
    A. E. DePrince III, E. G. Hohenstein, U. Bozkaya, A. Yu. Sokolov,
    R. Di Remigio, R. M. Richard, J. F. Gonthier, A. M. James,
    H. R. McAlexander, A. Kumar, M. Saitow, X. Wang, B. P. Pritchard,
    P. Verma, H. F. Schaefer III, K. Patkowski, R. A. King, E. F. Valeev,
    F. A. Evangelista, J. M. Turney, T. D. Crawford, and C. D. Sherrill,
    J. Chem. Theory Comput. 13(7) pp 3185--3197 (2017).
    (doi: 10.1021/acs.jctc.7b00174)


                         Additional Contributions by
    P. Kraus, H. Kruse, M. H. Lechner, M. C. Schieber, R. A. Shaw,
    A. Alenaizan, R. Galvelis, Z. L. Glick, S. Lehtola, and J. P. Misiewicz

    -----------------------------------------------------------------------


    Psi4 started on: Monday, 08 March 2021 09:48AM

    Process ID: 78691
    Host:       c5-18.compute.lan
    PSIDATADIR: /apps/gb/PSI4/1.3.2/share/psi4
    Memory:     500.0 MiB
    Threads:    12
    
  ==> Input File <==

--------------------------------------------------------------------------
memory 4 GB

molecule  {
0 1
O    0.000000000000    0.000000000000   -0.066121188674
H    0.000000000000   -0.760529491232    0.524695623526
H   -0.000000000000    0.760529491232    0.524695623526
}
set {
basis aug-cc-pvtz
reference uhf
e_convergence 10
scf_type pk
freeze_core true
}

set ccenergy {
e_convergence 10
r_convergence 10
}

e = energy('ccsd(t)')

print_out('Stephenergy {}'.format(e))

--------------------------------------------------------------------------

  Memory set to   3.725 GiB by Python driver.

*** tstart() called on c5-18.compute.lan
*** at Mon Mar  8 09:48:49 2021

   => Loading Basis Set <=

    Name: AUG-CC-PVTZ
    Role: ORBITAL
    Keyword: BASIS
    atoms 1   entry O          line   327 file /apps/gb/PSI4/1.3.2/share/psi4/basis/aug-cc-pvtz.gbs 
    atoms 2-3 entry H          line    36 file /apps/gb/PSI4/1.3.2/share/psi4/basis/aug-cc-pvtz.gbs 


         ---------------------------------------------------------
                                   SCF
               by Justin Turney, Rob Parrish, Andy Simmonett
                          and Daniel G. A. Smith
                              UHF Reference
                       12 Threads,   3814 MiB Core
         ---------------------------------------------------------

  ==> Geometry <==

    Molecular point group: c2v
    Full point group: C2v

    Geometry (in Angstrom), charge = 0, multiplicity = 1:

       Center              X                  Y                   Z               Mass       
    ------------   -----------------  -----------------  -----------------  -----------------
         O            0.000000000000     0.000000000000    -0.066121188674    15.994914619570
         H            0.000000000000    -0.760529491232     0.524695623526     1.007825032230
         H           -0.000000000000     0.760529491232     0.524695623526     1.007825032230

  Running in c2v symmetry.

  Rotational constants: A =     26.97870  B =     14.45937  C =      9.41393 [cm^-1]
  Rotational constants: A = 808801.17918  B = 433480.87731  C = 282222.41711 [MHz]
  Nuclear repulsion =    9.139568343161223

  Charge       = 0
  Multiplicity = 1
  Electrons    = 10
  Nalpha       = 5
  Nbeta        = 5

  ==> Algorithm <==

  SCF Algorithm Type is PK.
  DIIS enabled.
  MOM disabled.
  Fractional occupation disabled.
  Guess Type is SAD.
  Energy threshold   = 1.00e-10
  Density threshold  = 1.00e-08
  Integral threshold = 0.00e+00

  ==> Primary Basis <==

  Basis Set: AUG-CC-PVTZ
    Blend: AUG-CC-PVTZ
    Number of shells: 32
    Number of basis function: 92
    Number of Cartesian functions: 105
    Spherical Harmonics?: true
    Max angular momentum: 3

  ==> Pre-Iterations <==

   -------------------------------------------------------
    Irrep   Nso     Nmo     Nalpha   Nbeta   Ndocc  Nsocc
   -------------------------------------------------------
     A1        35      35       0       0       0       0
     A2        12      12       0       0       0       0
     B1        18      18       0       0       0       0
     B2        27      27       0       0       0       0
   -------------------------------------------------------
    Total      92      92       5       5       5       0
   -------------------------------------------------------

  ==> Integral Setup <==

  Using in-core PK algorithm.
   Calculation information:
      Number of atoms:                   3
      Number of AO shells:              32
      Number of primitives:             52
      Number of atomic orbitals:       105
      Number of basis functions:        92

      Integral cutoff                 1.00e-12
      Number of threads:                12

  Performing in-core PK
  Using 18305562 doubles for integral storage.
  We computed 240258 shell quartets total.
  Whereas there are 139656 unique shell quartets.
    72.04 percent of shell quartets recomputed by reordering.

  ==> DiskJK: Disk-Based J/K Matrices <==

    J tasked:                  Yes
    K tasked:                  Yes
    wK tasked:                  No
    Memory [MiB]:             2861
    Schwarz Cutoff:          1E-12

    OpenMP threads:             12

  Minimum eigenvalue in the overlap matrix is 3.8994637128E-04.
  Using Symmetric Orthogonalization.

  SCF Guess: Superposition of Atomic Densities via on-the-fly atomic UHF.

  ==> Iterations <==

                        Total Energy        Delta E     RMS |[F,P]|

   @UHF iter SAD:   -75.47155920934371   -7.54716e+01   0.00000e+00 
   @UHF iter   1:   -75.97565551080838   -5.04096e-01   9.51240e-03 DIIS
   @UHF iter   2:   -76.02802792424092   -5.23724e-02   6.51030e-03 DIIS
   @UHF iter   3:   -76.05973512905764   -3.17072e-02   4.42455e-04 DIIS
   @UHF iter   4:   -76.06012882262624   -3.93694e-04   1.06742e-04 DIIS
   @UHF iter   5:   -76.06015385580321   -2.50332e-05   2.43021e-05 DIIS
   @UHF iter   6:   -76.06015591312755   -2.05732e-06   5.32703e-06 DIIS
   @UHF iter   7:   -76.06015602168065   -1.08553e-07   9.58402e-07 DIIS
   @UHF iter   8:   -76.06015602476413   -3.08347e-09   1.61355e-07 DIIS
   @UHF iter   9:   -76.06015602483284   -6.87095e-11   3.99188e-08 DIIS
   @UHF iter  10:   -76.06015602483694   -4.10694e-12   5.83297e-09 DIIS
  Energy and wave function converged.


  ==> Post-Iterations <==

   @Spin Contamination Metric:  -2.042810365E-14
   @S^2 Expected:                0.000000000E+00
   @S^2 Observed:               -2.042810365E-14
   @S   Expected:                0.000000000E+00
   @S   Observed:                0.000000000E+00

    Orbital Energies [Eh]
    ---------------------

    Alpha Occupied:                                                       

       1A1   -20.568306     2A1    -1.350754     1B2    -0.714284  
       3A1    -0.584218     1B1    -0.509942  

    Alpha Virtual:                                                        

       4A1     0.029358     2B2     0.047674     5A1     0.135911  
       2B1     0.158834     6A1     0.175060     3B2     0.183035  
       4B2     0.227030     7A1     0.244811     1A2     0.265301  
       3B1     0.300135     8A1     0.310199     5B2     0.365683  
       9A1     0.436969     6B2     0.465710     7B2     0.599212  
      10A1     0.658074    11A1     0.708036     2A2     0.722507  
       4B1     0.731734    12A1     0.829751     5B1     0.845954  
      13A1     0.892428     8B2     0.912098     6B1     0.918738  
       3A2     0.922057     9B2     0.930424    14A1     0.961624  
      15A1     1.020151    10B2     1.042523     7B1     1.082342  
      11B2     1.108191     4A2     1.175520    16A1     1.180906  
      12B2     1.261596     5A2     1.509538    17A1     1.536794  
       8B1     1.582049    18A1     1.805829    13B2     1.816994  
      14B2     1.982296    19A1     2.115180     9B1     2.262212  
       6A2     2.315239    20A1     2.326836    21A1     2.417701  
      10B1     2.419810    15B2     2.442893    22A1     2.479145  
      16B2     2.678959    11B1     2.698626    23A1     2.768260  
      17B2     2.816811     7A2     2.882794    18B2     3.648597  
      24A1     3.739823     8A2     4.015062    12B1     4.080657  
      25A1     4.164929    19B2     4.242950    13B1     4.288458  
      26A1     4.375839     9A2     4.376220    14B1     4.402465  
      20B2     4.514215    27A1     4.720922    21B2     4.835557  
      22B2     5.141611    10A2     5.143251    23B2     5.248209  
      28A1     5.314824    15B1     5.513938    29A1     5.661015  
      30A1     6.172041    24B2     6.514374    16B1     6.708198  
      31A1     6.890959    17B1     7.129613    18B1     7.249075  
      25B2     7.297710    11A2     7.306599    32A1     7.325949  
      12A2     7.354039    33A1     7.525192    34A1     7.895779  
      26B2     7.913714    27B2     8.787903    35A1    15.653164  

    Beta Occupied:                                                        

       1A1   -20.568306     2A1    -1.350754     1B2    -0.714284  
       3A1    -0.584218     1B1    -0.509942  

    Beta Virtual:                                                         

       4A1     0.029358     2B2     0.047674     5A1     0.135911  
       2B1     0.158834     6A1     0.175060     3B2     0.183035  
       4B2     0.227030     7A1     0.244811     1A2     0.265301  
       3B1     0.300135     8A1     0.310199     5B2     0.365683  
       9A1     0.436969     6B2     0.465710     7B2     0.599212  
      10A1     0.658074    11A1     0.708036     2A2     0.722507  
       4B1     0.731734    12A1     0.829751     5B1     0.845954  
      13A1     0.892428     8B2     0.912098     6B1     0.918738  
       3A2     0.922057     9B2     0.930424    14A1     0.961624  
      15A1     1.020151    10B2     1.042523     7B1     1.082342  
      11B2     1.108191     4A2     1.175520    16A1     1.180906  
      12B2     1.261596     5A2     1.509538    17A1     1.536794  
       8B1     1.582049    18A1     1.805829    13B2     1.816994  
      14B2     1.982296    19A1     2.115180     9B1     2.262212  
       6A2     2.315239    20A1     2.326836    21A1     2.417701  
      10B1     2.419810    15B2     2.442893    22A1     2.479145  
      16B2     2.678959    11B1     2.698626    23A1     2.768260  
      17B2     2.816811     7A2     2.882794    18B2     3.648597  
      24A1     3.739823     8A2     4.015062    12B1     4.080657  
      25A1     4.164929    19B2     4.242950    13B1     4.288458  
      26A1     4.375839     9A2     4.376220    14B1     4.402465  
      20B2     4.514215    27A1     4.720922    21B2     4.835557  
      22B2     5.141611    10A2     5.143251    23B2     5.248209  
      28A1     5.314824    15B1     5.513938    29A1     5.661015  
      30A1     6.172041    24B2     6.514374    16B1     6.708198  
      31A1     6.890959    17B1     7.129613    18B1     7.249075  
      25B2     7.297710    11A2     7.306599    32A1     7.325949  
      12A2     7.354039    33A1     7.525192    34A1     7.895779  
      26B2     7.913714    27B2     8.787903    35A1    15.653164  

    Final Occupation by Irrep:
             A1    A2    B1    B2 
    DOCC [     3,    0,    1,    1 ]
    SOCC [     0,    0,    0,    0 ]

  @UHF Final Energy:   -76.06015602483694

   => Energetics <=

    Nuclear Repulsion Energy =              9.1395683431612227
    One-Electron Energy =                -122.9444407887410335
    Two-Electron Energy =                  37.7447164207428685
    Total Energy =                        -76.0601560248369424

  UHF NO Occupations:
  HONO-2 :    1 B1 2.0000000
  HONO-1 :    2 A1 2.0000000
  HONO-0 :    3 A1 2.0000000
  LUNO+0 :    4 A1 0.0000000
  LUNO+1 :    2 B2 0.0000000
  LUNO+2 :    2 B1 0.0000000
  LUNO+3 :    5 A1 0.0000000


Computation Completed


Properties will be evaluated at   0.000000,   0.000000,   0.000000 [a0]

Properties computed using the SCF density matrix

  Nuclear Dipole Moment: [e a0]
     X:     0.0000      Y:     0.0000      Z:     0.9835

  Electronic Dipole Moment: [e a0]
     X:     0.0000      Y:     0.0000      Z:    -0.2003

  Dipole Moment: [e a0]
     X:     0.0000      Y:     0.0000      Z:     0.7832     Total:     0.7832

  Dipole Moment: [D]
     X:     0.0000      Y:     0.0000      Z:     1.9906     Total:     1.9906


*** tstop() called on c5-18.compute.lan at Mon Mar  8 09:48:51 2021
Module time:
	user time   =      15.24 seconds =       0.25 minutes
	system time =       0.37 seconds =       0.01 minutes
	total time  =          2 seconds =       0.03 minutes
Total time:
	user time   =      15.24 seconds =       0.25 minutes
	system time =       0.37 seconds =       0.01 minutes
	total time  =          2 seconds =       0.03 minutes
 MINTS: Wrapper to libmints.
   by Justin Turney

   Calculation information:
      Number of threads:                12
      Number of atoms:                   3
      Number of AO shells:              32
      Number of SO shells:              23
      Number of primitives:             52
      Number of atomic orbitals:       105
      Number of basis functions:        92

      Number of irreps:                  4
      Integral cutoff                 0.00e+00
      Number of functions per irrep: [  35   12   18   27 ]

 OEINTS: Overlap, kinetic, potential, dipole, and quadrupole integrals
         stored in file 35.

      Computing two-electron integrals...done
      Computed 2248770 non-zero two-electron integrals.
        Stored in file 33.


*** tstart() called on c5-18.compute.lan
*** at Mon Mar  8 09:48:52 2021


	Wfn Parameters:
	--------------------
	Wavefunction         = CCSD_T
	Number of irreps     = 4
	Number of MOs        = 92
	Number of active MOs = 91
	AO-Basis             = NONE
	Semicanonical        = false
	Reference            = UHF
	Print Level          = 1

	IRREP	# MOs	# FZDC	# DOCC	# SOCC	# VIRT	# FZVR
	-----	-----	------	------	------	------	------
	 A1	   35	    1	    2	    0	    32	    0
	 A2	   12	    0	    0	    0	    12	    0
	 B1	   18	    0	    1	    0	    17	    0
	 B2	   27	    0	    1	    0	    26	    0
	Transforming integrals...
	IWL integrals will be deleted.
	(OO|OO)...
	Presorting SO-basis two-electron integrals.
	Sorting File: SO Ints (nn|nn) nbuckets = 1
	Transforming the one-electron integrals and constructing Fock matrices
	Starting AA/AB first half-transformation.
	Sorting AA/AB half-transformed integrals.
	Starting BB first half-transformation.
	Sorting BB half-transformed integrals.
	First half integral transformation complete.
	Starting AA second half-transformation.
	Starting AB second half-transformation.
	Starting BB second half-transformation.
	Two-electron integral transformation complete.
	(OO|OV)...
	Starting AA second half-transformation.
	Starting AB second half-transformation.
	Starting BB second half-transformation.
	Two-electron integral transformation complete.
	(OO|VV)...
	Starting AA second half-transformation.
	Starting AB second half-transformation.
	Starting BB second half-transformation.
	Two-electron integral transformation complete.
	(OV|OO)...
	Starting AA/AB first half-transformation.
	Sorting AA/AB half-transformed integrals.
	Starting BB first half-transformation.
	Sorting BB half-transformed integrals.
	First half integral transformation complete.
	Starting AA second half-transformation.
	Starting AB second half-transformation.
	Starting BB second half-transformation.
	Two-electron integral transformation complete.
	(OV|OV)...
	Starting AA second half-transformation.
	Starting AB second half-transformation.
	Starting BB second half-transformation.
	Two-electron integral transformation complete.
	(OV|VV)...
	Starting AA second half-transformation.
	Starting AB second half-transformation.
	Starting BB second half-transformation.
	Two-electron integral transformation complete.
	(VV|OO)...
	Starting AA/AB first half-transformation.
	Sorting AA/AB half-transformed integrals.
	Starting BB first half-transformation.
	Sorting BB half-transformed integrals.
	First half integral transformation complete.
	Starting AA second half-transformation.
	Starting AB second half-transformation.
	Starting BB second half-transformation.
	Two-electron integral transformation complete.
	(VV|OV)...
	Starting AA second half-transformation.
	Starting AB second half-transformation.
	Starting BB second half-transformation.
	Two-electron integral transformation complete.
	(VV|VV)...
	Starting AA second half-transformation.
	Starting AB second half-transformation.
	Starting BB second half-transformation.
	Two-electron integral transformation complete.
	Frozen core energy     =    -61.30337892129641

	Size of irrep 0 of <AB|CD> integrals:      1.047 (MW) /      8.372 (MB)
	Size of irrep 1 of <AB|CD> integrals:      0.682 (MW) /      5.458 (MB)
	Size of irrep 2 of <AB|CD> integrals:      0.733 (MW) /      5.862 (MB)
	Size of irrep 3 of <AB|CD> integrals:      1.073 (MW) /      8.586 (MB)
	Total:                                     3.535 (MW) /     28.279 (MB)

	Size of irrep 0 of <ab|cd> integrals:      1.047 (MW) /      8.372 (MB)
	Size of irrep 1 of <ab|cd> integrals:      0.682 (MW) /      5.458 (MB)
	Size of irrep 2 of <ab|cd> integrals:      0.733 (MW) /      5.862 (MB)
	Size of irrep 3 of <ab|cd> integrals:      1.073 (MW) /      8.586 (MB)
	Total:                                     3.535 (MW) /     28.279 (MB)

	Size of irrep 0 of <Ab|Cd> integrals:      4.550 (MW) /     36.398 (MB)
	Size of irrep 1 of <Ab|Cd> integrals:      2.729 (MW) /     21.833 (MB)
	Size of irrep 2 of <Ab|Cd> integrals:      2.931 (MW) /     23.448 (MB)
	Size of irrep 3 of <Ab|Cd> integrals:      4.293 (MW) /     34.345 (MB)
	Total:                                    14.503 (MW) /    116.023 (MB)

	Size of irrep 0 of <IA|BC> integrals:      0.228 (MW) /      1.826 (MB)
	Size of irrep 1 of <IA|BC> integrals:      0.111 (MW) /      0.885 (MB)
	Size of irrep 2 of <IA|BC> integrals:      0.134 (MW) /      1.068 (MB)
	Size of irrep 3 of <IA|BC> integrals:      0.199 (MW) /      1.591 (MB)
	Total:                                     0.671 (MW) /      5.371 (MB)

	Size of irrep 0 of <ia|bc> integrals:      0.228 (MW) /      1.826 (MB)
	Size of irrep 1 of <ia|bc> integrals:      0.111 (MW) /      0.885 (MB)
	Size of irrep 2 of <ia|bc> integrals:      0.134 (MW) /      1.068 (MB)
	Size of irrep 3 of <ia|bc> integrals:      0.199 (MW) /      1.591 (MB)
	Total:                                     0.671 (MW) /      5.371 (MB)

	Size of irrep 0 of <Ia|Bc> integrals:      0.228 (MW) /      1.826 (MB)
	Size of irrep 1 of <Ia|Bc> integrals:      0.111 (MW) /      0.885 (MB)
	Size of irrep 2 of <Ia|Bc> integrals:      0.134 (MW) /      1.068 (MB)
	Size of irrep 3 of <Ia|Bc> integrals:      0.199 (MW) /      1.591 (MB)
	Total:                                     0.671 (MW) /      5.371 (MB)

	Size of irrep 0 of <iA|bC> integrals:      0.228 (MW) /      1.826 (MB)
	Size of irrep 1 of <iA|bC> integrals:      0.111 (MW) /      0.885 (MB)
	Size of irrep 2 of <iA|bC> integrals:      0.134 (MW) /      1.068 (MB)
	Size of irrep 3 of <iA|bC> integrals:      0.199 (MW) /      1.591 (MB)
	Total:                                     0.671 (MW) /      5.371 (MB)

	Size of irrep 0 of tIjAb amplitudes:       0.013 (MW) /      0.102 (MB)
	Size of irrep 1 of tIjAb amplitudes:       0.003 (MW) /      0.026 (MB)
	Size of irrep 2 of tIjAb amplitudes:       0.007 (MW) /      0.055 (MB)
	Size of irrep 3 of tIjAb amplitudes:       0.008 (MW) /      0.066 (MB)
	Total:                                     0.031 (MW) /      0.250 (MB)

	Nuclear Rep. energy          =      9.13956834316122
	SCF energy                   =    -76.06015602483694
	One-electron energy          =    -41.47429438911020
	Two-electron (AA) energy     =      3.41691049622016
	Two-electron (BB) energy     =      3.41691049622016
	Two-electron (AB) energy     =     10.74412794996797
	Two-electron energy          =     17.57794894240829
	Reference energy             =    -76.06015602483710

*** tstop() called on c5-18.compute.lan at Mon Mar  8 09:49:00 2021
Module time:
	user time   =       3.05 seconds =       0.05 minutes
	system time =       3.61 seconds =       0.06 minutes
	total time  =          8 seconds =       0.13 minutes
Total time:
	user time   =      21.87 seconds =       0.36 minutes
	system time =       4.13 seconds =       0.07 minutes
	total time  =         11 seconds =       0.18 minutes
            **************************
            *                        *
            *        CCENERGY        *
            *                        *
            **************************

    Nuclear Rep. energy (wfn)     =    9.139568343161223
    SCF energy          (wfn)     =  -76.060156024836942
    Reference energy    (file100) =  -76.060156024837099

    Input parameters:
    -----------------
    Wave function   =     CCSD_T
    Reference wfn   =     UHF
    Brueckner       =     No
    Memory (Mbytes) =     4000.0
    Maxiter         =     50
    R_Convergence   =     1.0e-10
    E_Convergence   =     1.0e-10
    Restart         =     Yes
    DIIS            =     Yes
    AO Basis        =     NONE
    ABCD            =     NEW
    Cache Level     =     2
    Cache Type      =     LRU
    Print Level     =     1
    Num. of threads =     12
    # Amps to Print =     10
    Print MP2 Amps? =     No
    Analyze T2 Amps =     No
    Print Pair Ener =     No
    Local CC        =     No
    SCS-MP2         =     False
    SCSN-MP2        =     False
    SCS-CCSD        =     False

MP2 correlation energy -0.2688292378310672
                Solving CC Amplitude Equations
                ------------------------------
  Iter             Energy              RMS        T1Diag      D1Diag    New D1Diag    D2Diag
  ----     ---------------------    ---------   ----------  ----------  ----------   --------
     0        -0.268829237831067    0.000e+00    0.000000    0.000000    0.000000    0.000000
     1        -0.267283407233051    4.781e-02    0.012134    0.000000    0.000000    0.000000
     2        -0.272376311608257    1.319e-02    0.011907    0.000000    0.000000    0.000000
     3        -0.273601805117537    6.200e-03    0.013769    0.000000    0.000000    0.000000
     4        -0.273496935002381    1.248e-03    0.014093    0.000000    0.000000    0.000000
     5        -0.273480633398128    4.605e-04    0.014226    0.000000    0.000000    0.000000
     6        -0.273481525551543    1.149e-04    0.014256    0.000000    0.000000    0.000000
     7        -0.273480300027977    3.898e-05    0.014262    0.000000    0.000000    0.000000
     8        -0.273480344130332    1.070e-05    0.014264    0.000000    0.000000    0.000000
     9        -0.273480392106891    3.308e-06    0.014264    0.000000    0.000000    0.000000
    10        -0.273480270315058    1.341e-06    0.014264    0.000000    0.000000    0.000000
    11        -0.273480288797014    4.633e-07    0.014264    0.000000    0.000000    0.000000
    12        -0.273480283743120    1.721e-07    0.014264    0.000000    0.000000    0.000000
    13        -0.273480285562479    5.053e-08    0.014264    0.000000    0.000000    0.000000
    14        -0.273480286776805    1.337e-08    0.014264    0.000000    0.000000    0.000000
    15        -0.273480286828029    4.093e-09    0.014264    0.000000    0.000000    0.000000
    16        -0.273480286830500    1.247e-09    0.014264    0.000000    0.000000    0.000000
    17        -0.273480286839451    4.293e-10    0.014264    0.000000    0.000000    0.000000
    18        -0.273480286836411    1.110e-10    0.014264    0.000000    0.000000    0.000000
    19        -0.273480286836043    3.353e-11    0.014264    0.000000    0.000000    0.000000

    Iterations converged.


    Largest TIA Amplitudes:
              2  44        -0.0151771851
              2  45        -0.0130671242
              1   1         0.0085387182
              1   4        -0.0078256086
              3  73         0.0054629638
              2  54         0.0042814094
              3  69         0.0038172565
              2  47        -0.0036795041
              3  80         0.0036078873
              1  23         0.0034044277

    Largest Tia Amplitudes:
              2  44        -0.0151771851
              2  45        -0.0130671242
              1   1         0.0085387182
              1   4        -0.0078256086
              3  73         0.0054629638
              2  54         0.0042814094
              3  69         0.0038172565
              2  47        -0.0036795041
              3  80         0.0036078873
              1  23         0.0034044277

    Largest TIJAB Amplitudes:
      2   1  46   7        -0.0095589659
      3   1  66   6        -0.0093639975
      3   2  33   6        -0.0085847742
      3   1  65   9         0.0081232181
      2   1  49   9         0.0079612523
      3   2  65  49        -0.0076699922
      3   2  65  44        -0.0074339441
      3   1  66  13         0.0073982900
      2   1  48   9         0.0072918845
      3   2  65  45        -0.0072029829

    Largest Tijab Amplitudes:
      2   1  46   7        -0.0095589659
      3   1  66   6        -0.0093639975
      3   2  33   6        -0.0085847742
      3   1  65   9         0.0081232181
      2   1  49   9         0.0079612523
      3   2  65  49        -0.0076699922
      3   2  65  44        -0.0074339441
      3   1  66  13         0.0073982900
      2   1  48   9         0.0072918845
      3   2  65  45        -0.0072029829

    Largest TIjAb Amplitudes:
      3   3  65  65        -0.0217022261
      1   1   9   9        -0.0199492015
      2   2  49  49        -0.0157113426
      3   3  65  69        -0.0155627208
      3   3  69  65        -0.0155627208
      3   3  66  66        -0.0148576250
      1   1  66  66        -0.0137602371
      2   2  48  48        -0.0135732075
      3   3  69  69        -0.0131428547
      1   3   9  65         0.0128678364

    SCF energy       (wfn)                    =  -76.060156024836942
    Reference energy (file100)                =  -76.060156024837099

    Opposite-spin MP2 correlation energy      =   -0.203582459583459
    Same-spin MP2 correlation energy          =   -0.065246778247608
    MP2 correlation energy                    =   -0.268829237831067
      * MP2 total energy                      =  -76.328985262668169

    Opposite-spin CCSD correlation energy     =   -0.215575592074567
    Same-spin CCSD correlation energy         =   -0.057904694761476
    CCSD correlation energy                   =   -0.273480286836043
      * CCSD total energy                     =  -76.333636311673146

            **************************
            *                        *
            *        CCTRIPLES       *
            *                        *
            **************************


    Wave function   =    CCSD_T
    Reference wfn   =      UHF

    Nuclear Rep. energy (wfn)                =    9.139568343161223
    SCF energy          (wfn)                =  -76.060156024836942
    Reference energy    (file100)            =  -76.060156024837099
    CCSD energy         (file100)            =   -0.273480286836043
    Total CCSD energy   (file100)            =  -76.333636311673146

    Number of ijk index combinations:
    Spin Case AAA:                                   4
    Spin Case BBB:                                   4
    Spin Case AAB:                                  24
    Spin Case ABB:                                  24
    AAA (T) energy                             =   -0.000193706137740
    BBB (T) energy                             =   -0.000193706137740
    AAB (T) energy                             =   -0.004148565309582
    ABB (T) energy                             =   -0.004148565309582
    (T) energy                                   =   -0.008684542894645
      * CCSD(T) total energy                     =  -76.342320854567788

Stephenergy -76.34232085456779
    Psi4 stopped on: Monday, 08 March 2021 09:49AM
    Psi4 wall time for execution: 0:00:21.84

*** Psi4 exiting successfully. Buy a developer a beer!
