
    -----------------------------------------------------------------------
          Psi4: An Open-Source Ab Initio Electronic Structure Package
                               Psi4 1.3.2 release

                         Git: Rev {HEAD} ecbda83 


    R. M. Parrish, L. A. Burns, D. G. A. Smith, A. C. Simmonett,
    A. E. DePrince III, E. G. Hohenstein, U. Bozkaya, A. Yu. Sokolov,
    R. Di Remigio, R. M. Richard, J. F. Gonthier, A. M. James,
    H. R. McAlexander, A. Kumar, M. Saitow, X. Wang, B. P. Pritchard,
    P. Verma, H. F. Schaefer III, K. Patkowski, R. A. King, E. F. Valeev,
    F. A. Evangelista, J. M. Turney, T. D. Crawford, and C. D. Sherrill,
    J. Chem. Theory Comput. 13(7) pp 3185--3197 (2017).
    (doi: 10.1021/acs.jctc.7b00174)


                         Additional Contributions by
    P. Kraus, H. Kruse, M. H. Lechner, M. C. Schieber, R. A. Shaw,
    A. Alenaizan, R. Galvelis, Z. L. Glick, S. Lehtola, and J. P. Misiewicz

    -----------------------------------------------------------------------


    Psi4 started on: Monday, 08 March 2021 05:41PM

    Process ID: 213664
    Host:       c5-18.compute.lan
    PSIDATADIR: /apps/gb/PSI4/1.3.2/share/psi4
    Memory:     500.0 MiB
    Threads:    12
    
  ==> Input File <==

--------------------------------------------------------------------------
memory 4 GB

molecule  {
0 3
O    0.000000000000    0.000000000000    1.270101053562
H    0.000000000000   -0.759829563800    1.861213982480
H   -0.000000000000    0.759829563800    1.861213982480
O    0.000000000000    0.000000000000   -1.504647856279
}
set {
basis aug-cc-pvtz
reference uhf
e_convergence 10
scf_type pk
freeze_core true
}

set ccenergy {
e_convergence 10
r_convergence 10
}

e = energy('ccsd(t)')

print_out('Stephenergy {}'.format(e))

--------------------------------------------------------------------------

  Memory set to   3.725 GiB by Python driver.

*** tstart() called on c5-18.compute.lan
*** at Mon Mar  8 17:41:15 2021

   => Loading Basis Set <=

    Name: AUG-CC-PVTZ
    Role: ORBITAL
    Keyword: BASIS
    atoms 1, 4 entry O          line   327 file /apps/gb/PSI4/1.3.2/share/psi4/basis/aug-cc-pvtz.gbs 
    atoms 2-3  entry H          line    36 file /apps/gb/PSI4/1.3.2/share/psi4/basis/aug-cc-pvtz.gbs 


         ---------------------------------------------------------
                                   SCF
               by Justin Turney, Rob Parrish, Andy Simmonett
                          and Daniel G. A. Smith
                              UHF Reference
                       12 Threads,   3814 MiB Core
         ---------------------------------------------------------

  ==> Geometry <==

    Molecular point group: c2v
    Full point group: C2v

    Geometry (in Angstrom), charge = 0, multiplicity = 3:

       Center              X                  Y                   Z               Mass       
    ------------   -----------------  -----------------  -----------------  -----------------
         O            0.000000000000     0.000000000000     1.270101053562    15.994914619570
         H            0.000000000000    -0.759829563800     1.861213982480     1.007825032230
         H           -0.000000000000     0.759829563800     1.861213982480     1.007825032230
         O            0.000000000000     0.000000000000    -1.504647856279    15.994914619570

  Running in c2v symmetry.

  Rotational constants: A =     14.48602  B =      0.24433  C =      0.24027 [cm^-1]
  Rotational constants: A = 434279.85886  B =   7324.68571  C =   7203.19462 [MHz]
  Nuclear repulsion =   23.802583965326388

  Charge       = 0
  Multiplicity = 3
  Electrons    = 18
  Nalpha       = 10
  Nbeta        = 8

  ==> Algorithm <==

  SCF Algorithm Type is PK.
  DIIS enabled.
  MOM disabled.
  Fractional occupation disabled.
  Guess Type is SAD.
  Energy threshold   = 1.00e-10
  Density threshold  = 1.00e-08
  Integral threshold = 0.00e+00

  ==> Primary Basis <==

  Basis Set: AUG-CC-PVTZ
    Blend: AUG-CC-PVTZ
    Number of shells: 46
    Number of basis function: 138
    Number of Cartesian functions: 160
    Spherical Harmonics?: true
    Max angular momentum: 3

  ==> Pre-Iterations <==

   -------------------------------------------------------
    Irrep   Nso     Nmo     Nalpha   Nbeta   Ndocc  Nsocc
   -------------------------------------------------------
     A1        54      54       0       0       0       0
     A2        17      17       0       0       0       0
     B1        29      29       0       0       0       0
     B2        38      38       0       0       0       0
   -------------------------------------------------------
    Total     138     138      10       8       8       2
   -------------------------------------------------------

  ==> Integral Setup <==

  Using in-core PK algorithm.
   Calculation information:
      Number of atoms:                   4
      Number of AO shells:              46
      Number of primitives:             82
      Number of atomic orbitals:       160
      Number of basis functions:       138

      Integral cutoff                 1.00e-12
      Number of threads:                12

  Performing in-core PK
  Using 91996872 doubles for integral storage.
  We computed 909464 shell quartets total.
  Whereas there are 584821 unique shell quartets.
    55.51 percent of shell quartets recomputed by reordering.

  ==> DiskJK: Disk-Based J/K Matrices <==

    J tasked:                  Yes
    K tasked:                  Yes
    wK tasked:                  No
    Memory [MiB]:             2861
    Schwarz Cutoff:          1E-12

    OpenMP threads:             12

  Minimum eigenvalue in the overlap matrix is 3.2483605070E-04.
  Using Symmetric Orthogonalization.

  SCF Guess: Superposition of Atomic Densities via on-the-fly atomic UHF.

  ==> Iterations <==

                        Total Energy        Delta E     RMS |[F,P]|

   @UHF iter SAD:  -149.38032223124139   -1.49380e+02   0.00000e+00 
   @UHF iter   1:  -150.76972603739131   -1.38940e+00   6.69643e-03 DIIS
   @UHF iter   2:  -150.84046567803813   -7.07396e-02   4.26311e-03 DIIS
   @UHF iter   3:  -150.87187740140197   -3.14117e-02   5.59210e-04 DIIS
   @UHF iter   4:  -150.87325367156834   -1.37627e-03   1.71291e-04 DIIS
   @UHF iter   5:  -150.87338813633679   -1.34465e-04   6.98596e-05 DIIS
   @UHF iter   6:  -150.87342130082948   -3.31645e-05   2.08708e-05 DIIS
   @UHF iter   7:  -150.87342440644133   -3.10561e-06   5.37113e-06 DIIS
   @UHF iter   8:  -150.87342463207918   -2.25638e-07   1.49603e-06 DIIS
   @UHF iter   9:  -150.87342464915784   -1.70787e-08   3.72368e-07 DIIS
   @UHF iter  10:  -150.87342465028055   -1.12271e-09   1.79563e-07 DIIS
   @UHF iter  11:  -150.87342465063307   -3.52514e-10   7.00619e-08 DIIS
   @UHF iter  12:  -150.87342465068832   -5.52518e-11   1.50146e-08 DIIS
   @UHF iter  13:  -150.87342465069011   -1.79057e-12   4.49772e-09 DIIS
  Energy and wave function converged.


  ==> Post-Iterations <==

   @Spin Contamination Metric:   9.530052367E-03
   @S^2 Expected:                2.000000000E+00
   @S^2 Observed:                2.009530052E+00
   @S   Expected:                1.000000000E+00
   @S   Observed:                1.000000000E+00

    Orbital Energies [Eh]
    ---------------------

    Alpha Occupied:                                                       

       1A1   -20.684522     2A1   -20.571455     3A1    -1.393940  
       4A1    -1.354846     1B2    -0.717817     5A1    -0.688191  
       1B1    -0.685244     6A1    -0.586554     2B2    -0.586253  
       2B1    -0.513925  

    Alpha Virtual:                                                        

       7A1     0.029526     3B2     0.047675     8A1     0.118619  
       3B1     0.154107     9A1     0.159404     4B2     0.180279  
       5B2     0.186938     4B1     0.192781    10A1     0.198033  
       1A2     0.263766     6B2     0.263899    11A1     0.264768  
      12A1     0.314308     5B1     0.326482    13A1     0.376001  
       7B2     0.380379    14A1     0.449825     8B2     0.464127  
       9B2     0.599872     6B1     0.643747    15A1     0.647484  
       2A2     0.658148    16A1     0.666407    17A1     0.696172  
       3A2     0.721870    10B2     0.722389     7B1     0.767387  
      18A1     0.792534    19A1     0.818418     8B1     0.837841  
      20A1     0.860977     9B1     0.901185    11B2     0.918506  
       4A2     0.924643    12B2     0.946249    13B2     0.979564  
      21A1     0.989230    10B1     1.012569    22A1     1.046002  
      14B2     1.051099    11B1     1.121550     5A2     1.176622  
      23A1     1.191431    15B2     1.198740    16B2     1.326855  
      24A1     1.336956    25A1     1.442635     6A2     1.506823  
      12B1     1.593016    26A1     1.665960    27A1     1.813233  
      17B2     1.822555    18B2     1.975076    28A1     2.040732  
      13B1     2.047733    19B2     2.054049     7A2     2.056758  
      14B1     2.058892    29A1     2.079007    30A1     2.114913  
       8A2     2.118698    20B2     2.135050    31A1     2.139370  
      15B1     2.145198    32A1     2.252166    21B2     2.267027  
      16B1     2.303388     9A2     2.311526    17B1     2.433918  
      33A1     2.470051    22B2     2.483015    34A1     2.485980  
      35A1     2.695191    18B1     2.715940    23B2     2.720644  
      36A1     2.840008    24B2     2.860799    10A2     2.879556  
      25B2     3.689060    37A1     3.750413    11A2     4.012980  
      19B1     4.078157    20B1     4.099098    38A1     4.137986  
      26B2     4.183047    27B2     4.280293    21B1     4.286930  
      39A1     4.350390    12A2     4.381037    40A1     4.426028  
      22B1     4.450237    28B2     4.515304    41A1     4.787988  
      29B2     4.837538    13A2     5.140717    30B2     5.141008  
      31B2     5.244156    42A1     5.335290    23B1     5.513267  
      43A1     5.679973    44A1     6.198392    24B1     6.388874  
      45A1     6.408761    14A2     6.410141    32B2     6.423574  
      25B1     6.435483    33B2     6.485269    46A1     6.535375  
      34B2     6.581748    26B1     6.715834    27B1     6.902256  
      47A1     6.905476    15A2     6.924510    48A1     6.939673  
      35B2     6.985657    49A1     7.046729    28B1     7.133225  
      29B1     7.277250    36B2     7.303082    16A2     7.303918  
      17A2     7.351568    50A1     7.438575    51A1     7.538628  
      52A1     7.904683    37B2     7.913102    38B2     8.799953  
      53A1     8.859934    54A1    15.735373  

    Beta Occupied:                                                        

       1A1   -20.605657     2A1   -20.570994     3A1    -1.354160  
       4A1    -1.051136     1B2    -0.717489     5A1    -0.588289  
       1B1    -0.513267     2B2    -0.495673  

    Beta Virtual:                                                         

       6A1     0.029364     3B2     0.047755     2B1     0.086516  
       7A1     0.091924     8A1     0.140942     9A1     0.167023  
       3B1     0.170703     4B2     0.180921     5B2     0.190512  
      10A1     0.225522     4B1     0.253282     1A2     0.263768  
       6B2     0.264347    11A1     0.288396    12A1     0.316661  
       5B1     0.327789     7B2     0.380551    13A1     0.386394  
      14A1     0.450928     8B2     0.464322     9B2     0.601483  
      15A1     0.660488     6B1     0.667593     2A2     0.672565  
      16A1     0.673548    17A1     0.713414     3A2     0.722340  
      10B2     0.734603     7B1     0.778633    18A1     0.805803  
       8B1     0.846914    19A1     0.850432     4A2     0.925028  
      20A1     0.928177    11B2     0.936285    12B2     0.953277  
      13B2     0.983285     9B1     0.986580    21A1     0.996352  
      22A1     1.052143    14B2     1.052225    10B1     1.060426  
      11B1     1.137581     5A2     1.176819    23A1     1.192919  
      15B2     1.201486    16B2     1.329240    24A1     1.393621  
      25A1     1.481938     6A2     1.507241    12B1     1.594987  
      26A1     1.696203    27A1     1.818245    17B2     1.822894  
      18B2     1.976433    28A1     2.070186    13B1     2.070822  
      19B2     2.071479     7A2     2.081398    29A1     2.099159  
      14B1     2.100214    30A1     2.154917    20B2     2.180727  
       8A2     2.201917    31A1     2.207590    15B1     2.258298  
      32A1     2.308970     9A2     2.311662    21B2     2.318852  
      16B1     2.319259    17B1     2.441708    33A1     2.482965  
      22B2     2.485918    34A1     2.514691    35A1     2.702434  
      18B1     2.717641    23B2     2.721540    36A1     2.852227  
      24B2     2.860987    10A2     2.879589    25B2     3.689921  
      37A1     3.750544    11A2     4.013009    19B1     4.080377  
      38A1     4.169728    26B2     4.218355    20B1     4.259001  
      27B2     4.291473    21B1     4.292216    12A2     4.381143  
      39A1     4.425090    22B1     4.455383    40A1     4.467386  
      28B2     4.515378    41A1     4.798773    29B2     4.837695  
      13A2     5.140791    30B2     5.141183    31B2     5.244561  
      42A1     5.335945    23B1     5.513378    43A1     5.684443  
      44A1     6.200037    24B1     6.485591    14A2     6.486971  
      32B2     6.487758    45A1     6.493026    25B1     6.499134  
      33B2     6.520724    46A1     6.606997    34B2     6.609822  
      26B1     6.722704    47A1     6.955112    15A2     7.038062  
      48A1     7.041898    27B1     7.084775    35B2     7.097515  
      28B1     7.133648    49A1     7.174032    29B1     7.281409  
      36B2     7.303267    16A2     7.304177    17A2     7.351986  
      50A1     7.441312    51A1     7.539726    52A1     7.905248  
      37B2     7.913450    38B2     8.800320    53A1     8.939356  
      54A1    15.735689  

    Final Occupation by Irrep:
             A1    A2    B1    B2 
    DOCC [     5,    0,    1,    2 ]
    SOCC [     1,    0,    1,    0 ]

  @UHF Final Energy:  -150.87342465069011

   => Energetics <=

    Nuclear Repulsion Energy =             23.8025839653263880
    One-Electron Energy =                -255.6726070931757135
    Two-Electron Energy =                  80.9965984771592105
    Total Energy =                       -150.8734246506901115

  UHF NO Occupations:
  HONO-2 :    5 A1 1.9970493
  HONO-1 :    2 B1 1.0000000
  HONO-0 :    6 A1 1.0000000
  LUNO+0 :    7 A1 0.0029507
  LUNO+1 :    3 B2 0.0017948
  LUNO+2 :    8 A1 0.0000215
  LUNO+3 :    9 A1 0.0000024


Computation Completed


Properties will be evaluated at   0.000000,   0.000000,   0.000000 [a0]

Properties computed using the SCF density matrix

  Nuclear Dipole Moment: [e a0]
     X:     0.0000      Y:     0.0000      Z:     3.4885

  Electronic Dipole Moment: [e a0]
     X:     0.0000      Y:     0.0000      Z:    -2.6507

  Dipole Moment: [e a0]
     X:     0.0000      Y:     0.0000      Z:     0.8378     Total:     0.8378

  Dipole Moment: [D]
     X:     0.0000      Y:     0.0000      Z:     2.1295     Total:     2.1295


*** tstop() called on c5-18.compute.lan at Mon Mar  8 17:41:21 2021
Module time:
	user time   =      52.02 seconds =       0.87 minutes
	system time =       1.57 seconds =       0.03 minutes
	total time  =          6 seconds =       0.10 minutes
Total time:
	user time   =      52.02 seconds =       0.87 minutes
	system time =       1.57 seconds =       0.03 minutes
	total time  =          6 seconds =       0.10 minutes
 MINTS: Wrapper to libmints.
   by Justin Turney

   Calculation information:
      Number of threads:                12
      Number of atoms:                   4
      Number of AO shells:              46
      Number of SO shells:              37
      Number of primitives:             82
      Number of atomic orbitals:       160
      Number of basis functions:       138

      Number of irreps:                  4
      Integral cutoff                 0.00e+00
      Number of functions per irrep: [  54   17   29   38 ]

 OEINTS: Overlap, kinetic, potential, dipole, and quadrupole integrals
         stored in file 35.

      Computing two-electron integrals...done
      Computed 11526998 non-zero two-electron integrals.
        Stored in file 33.


*** tstart() called on c5-18.compute.lan
*** at Mon Mar  8 17:41:24 2021


	Wfn Parameters:
	--------------------
	Wavefunction         = CCSD_T
	Number of irreps     = 4
	Number of MOs        = 138
	Number of active MOs = 136
	AO-Basis             = NONE
	Semicanonical        = false
	Reference            = UHF
	Print Level          = 1

	IRREP	# MOs	# FZDC	# DOCC	# SOCC	# VIRT	# FZVR
	-----	-----	------	------	------	------	------
	 A1	   54	    2	    3	    1	    48	    0
	 A2	   17	    0	    0	    0	    17	    0
	 B1	   29	    0	    1	    1	    27	    0
	 B2	   38	    0	    2	    0	    36	    0
	Transforming integrals...
	IWL integrals will be deleted.
	(OO|OO)...
	Presorting SO-basis two-electron integrals.
	Sorting File: SO Ints (nn|nn) nbuckets = 1
	Transforming the one-electron integrals and constructing Fock matrices
	Starting AA/AB first half-transformation.
	Sorting AA/AB half-transformed integrals.
	Starting BB first half-transformation.
	Sorting BB half-transformed integrals.
	First half integral transformation complete.
	Starting AA second half-transformation.
	Starting AB second half-transformation.
	Starting BB second half-transformation.
	Two-electron integral transformation complete.
	(OO|OV)...
	Starting AA second half-transformation.
	Starting AB second half-transformation.
	Starting BB second half-transformation.
	Two-electron integral transformation complete.
	(OO|VV)...
	Starting AA second half-transformation.
	Starting AB second half-transformation.
	Starting BB second half-transformation.
	Two-electron integral transformation complete.
	(OV|OO)...
	Starting AA/AB first half-transformation.
	Sorting AA/AB half-transformed integrals.
	Starting BB first half-transformation.
	Sorting BB half-transformed integrals.
	First half integral transformation complete.
	Starting AA second half-transformation.
	Starting AB second half-transformation.
	Starting BB second half-transformation.
	Two-electron integral transformation complete.
	(OV|OV)...
	Starting AA second half-transformation.
	Starting AB second half-transformation.
	Starting BB second half-transformation.
	Two-electron integral transformation complete.
	(OV|VV)...
	Starting AA second half-transformation.
	Starting AB second half-transformation.
	Starting BB second half-transformation.
	Two-electron integral transformation complete.
	(VV|OO)...
	Starting AA/AB first half-transformation.
	Sorting AA/AB half-transformed integrals.
	Starting BB first half-transformation.
	Sorting BB half-transformed integrals.
	First half integral transformation complete.
	Starting AA second half-transformation.
	Starting AB second half-transformation.
	Starting BB second half-transformation.
	Two-electron integral transformation complete.
	(VV|OV)...
	Starting AA second half-transformation.
	Starting AB second half-transformation.
	Starting BB second half-transformation.
	Two-electron integral transformation complete.
	(VV|VV)...
	Starting AA second half-transformation.
	Starting AB second half-transformation.
	Starting BB second half-transformation.
	Two-electron integral transformation complete.
	Frozen core energy     =   -126.36290073360614

	Size of irrep 0 of <AB|CD> integrals:      5.040 (MW) /     40.320 (MB)
	Size of irrep 1 of <AB|CD> integrals:      3.197 (MW) /     25.576 (MB)
	Size of irrep 2 of <AB|CD> integrals:      3.640 (MW) /     29.124 (MB)
	Size of irrep 3 of <AB|CD> integrals:      4.783 (MW) /     38.264 (MB)
	Total:                                    16.660 (MW) /    133.283 (MB)

	Size of irrep 0 of <ab|cd> integrals:      5.382 (MW) /     43.059 (MB)
	Size of irrep 1 of <ab|cd> integrals:      3.389 (MW) /     27.114 (MB)
	Size of irrep 2 of <ab|cd> integrals:      3.936 (MW) /     31.490 (MB)
	Size of irrep 3 of <ab|cd> integrals:      5.018 (MW) /     40.141 (MB)
	Total:                                    17.726 (MW) /    141.804 (MB)

	Size of irrep 0 of <Ab|Cd> integrals:     22.024 (MW) /    176.194 (MB)
	Size of irrep 1 of <Ab|Cd> integrals:     13.170 (MW) /    105.357 (MB)
	Size of irrep 2 of <Ab|Cd> integrals:     15.140 (MW) /    121.119 (MB)
	Size of irrep 3 of <Ab|Cd> integrals:     19.598 (MW) /    156.787 (MB)
	Total:                                    69.932 (MW) /    559.457 (MB)

	Size of irrep 0 of <IA|BC> integrals:      1.469 (MW) /     11.748 (MB)
	Size of irrep 1 of <IA|BC> integrals:      0.694 (MW) /      5.550 (MB)
	Size of irrep 2 of <IA|BC> integrals:      0.908 (MW) /      7.266 (MB)
	Size of irrep 3 of <IA|BC> integrals:      1.198 (MW) /      9.588 (MB)
	Total:                                     4.269 (MW) /     34.152 (MB)

	Size of irrep 0 of <ia|bc> integrals:      1.178 (MW) /      9.426 (MB)
	Size of irrep 1 of <ia|bc> integrals:      0.527 (MW) /      4.212 (MB)
	Size of irrep 2 of <ia|bc> integrals:      0.663 (MW) /      5.301 (MB)
	Size of irrep 3 of <ia|bc> integrals:      0.999 (MW) /      7.992 (MB)
	Total:                                     3.366 (MW) /     26.931 (MB)

	Size of irrep 0 of <Ia|Bc> integrals:      1.521 (MW) /     12.164 (MB)
	Size of irrep 1 of <Ia|Bc> integrals:      0.711 (MW) /      5.690 (MB)
	Size of irrep 2 of <Ia|Bc> integrals:      0.949 (MW) /      7.595 (MB)
	Size of irrep 3 of <Ia|Bc> integrals:      1.222 (MW) /      9.775 (MB)
	Total:                                     4.403 (MW) /     35.225 (MB)

	Size of irrep 0 of <iA|bC> integrals:      1.140 (MW) /      9.123 (MB)
	Size of irrep 1 of <iA|bC> integrals:      0.512 (MW) /      4.094 (MB)
	Size of irrep 2 of <iA|bC> integrals:      0.634 (MW) /      5.074 (MB)
	Size of irrep 3 of <iA|bC> integrals:      0.978 (MW) /      7.827 (MB)
	Total:                                     3.265 (MW) /     26.118 (MB)

	Size of irrep 0 of tIjAb amplitudes:       0.084 (MW) /      0.676 (MB)
	Size of irrep 1 of tIjAb amplitudes:       0.022 (MW) /      0.174 (MB)
	Size of irrep 2 of tIjAb amplitudes:       0.039 (MW) /      0.311 (MB)
	Size of irrep 3 of tIjAb amplitudes:       0.062 (MW) /      0.496 (MB)
	Total:                                     0.207 (MW) /      1.657 (MB)

	Nuclear Rep. energy          =     23.80258396532639
	SCF energy                   =   -150.87342465069011
	One-electron energy          =    -85.37943286976406
	Two-electron (AA) energy     =     10.36015660399510
	Two-electron (BB) energy     =      5.46456549360061
	Two-electron (AB) energy     =     21.24160288975683
	Two-electron energy          =     37.06632498735254
	Reference energy             =   -150.87342465069128

*** tstop() called on c5-18.compute.lan at Mon Mar  8 17:41:49 2021
Module time:
	user time   =      57.62 seconds =       0.96 minutes
	system time =      13.72 seconds =       0.23 minutes
	total time  =         25 seconds =       0.42 minutes
Total time:
	user time   =     114.70 seconds =       1.91 minutes
	system time =      15.68 seconds =       0.26 minutes
	total time  =         34 seconds =       0.57 minutes
            **************************
            *                        *
            *        CCENERGY        *
            *                        *
            **************************

    Nuclear Rep. energy (wfn)     =   23.802583965326388
    SCF energy          (wfn)     = -150.873424650690112
    Reference energy    (file100) = -150.873424650691277

    Input parameters:
    -----------------
    Wave function   =     CCSD_T
    Reference wfn   =     UHF
    Brueckner       =     No
    Memory (Mbytes) =     4000.0
    Maxiter         =     50
    R_Convergence   =     1.0e-10
    E_Convergence   =     1.0e-10
    Restart         =     Yes
    DIIS            =     Yes
    AO Basis        =     NONE
    ABCD            =     NEW
    Cache Level     =     2
    Cache Type      =     LRU
    Print Level     =     1
    Num. of threads =     12
    # Amps to Print =     10
    Print MP2 Amps? =     No
    Analyze T2 Amps =     No
    Print Pair Ener =     No
    Local CC        =     No
    SCS-MP2         =     False
    SCSN-MP2        =     False
    SCS-CCSD        =     False

MP2 correlation energy -0.4163719056242569
                Solving CC Amplitude Equations
                ------------------------------
  Iter             Energy              RMS        T1Diag      D1Diag    New D1Diag    D2Diag
  ----     ---------------------    ---------   ----------  ----------  ----------   --------
     0        -0.416371905624257    0.000e+00    0.000000    0.000000    0.000000    0.000000
     1        -0.427123715810953    5.705e-02    0.010592    0.000000    0.000000    0.000000
     2        -0.435232414151081    1.705e-02    0.011084    0.000000    0.000000    0.000000
     3        -0.437388677630695    8.783e-03    0.013008    0.000000    0.000000    0.000000
     4        -0.437262201438340    2.681e-03    0.013417    0.000000    0.000000    0.000000
     5        -0.437252692767743    1.394e-03    0.013609    0.000000    0.000000    0.000000
     6        -0.437281706678842    5.297e-04    0.013635    0.000000    0.000000    0.000000
     7        -0.437284679381413    2.147e-04    0.013629    0.000000    0.000000    0.000000
     8        -0.437285629013142    6.685e-05    0.013624    0.000000    0.000000    0.000000
     9        -0.437286313255168    2.387e-05    0.013624    0.000000    0.000000    0.000000
    10        -0.437285414273130    9.225e-06    0.013624    0.000000    0.000000    0.000000
    11        -0.437285580611315    4.003e-06    0.013623    0.000000    0.000000    0.000000
    12        -0.437285540868794    1.446e-06    0.013624    0.000000    0.000000    0.000000
    13        -0.437285548850890    7.308e-07    0.013624    0.000000    0.000000    0.000000
    14        -0.437285571407495    3.050e-07    0.013624    0.000000    0.000000    0.000000
    15        -0.437285573067116    1.111e-07    0.013624    0.000000    0.000000    0.000000
    16        -0.437285573635400    4.977e-08    0.013624    0.000000    0.000000    0.000000
    17        -0.437285574211445    1.920e-08    0.013624    0.000000    0.000000    0.000000
    18        -0.437285574067422    9.992e-09    0.013624    0.000000    0.000000    0.000000
    19        -0.437285573858678    3.950e-09    0.013624    0.000000    0.000000    0.000000
    20        -0.437285573847643    2.132e-09    0.013624    0.000000    0.000000    0.000000
    21        -0.437285573824060    8.147e-10    0.013624    0.000000    0.000000    0.000000
    22        -0.437285573822485    3.273e-10    0.013624    0.000000    0.000000    0.000000
    23        -0.437285573821518    1.698e-10    0.013624    0.000000    0.000000    0.000000
    24        -0.437285573821356    6.967e-11    0.013624    0.000000    0.000000    0.000000

    Iterations converged.


    Largest TIA Amplitudes:
              5  65        -0.0133577162
              5  67        -0.0111945445
              7  94         0.0103366788
              5  66        -0.0097626502
              4  65        -0.0074695642
              3   1         0.0074110454
              2   3         0.0072036320
              4  66         0.0071533004
              3   5        -0.0056211328
              3   6         0.0053631062

    Largest Tia Amplitudes:
              3  67        -0.0148782165
              2   2         0.0134032943
              3  69        -0.0108062594
              5  96         0.0079498262
              3  66        -0.0076758654
              2   1        -0.0067819492
              2   6        -0.0055973123
              2   7         0.0055813361
              1  25        -0.0054539673
              4 109         0.0054053508

    Largest TIJAB Amplitudes:
      7   4 100  71         0.0142834215
      7   4  55  23        -0.0135845201
      7   2 100  12        -0.0121388231
      4   2  71  12         0.0110355739
      6   5  50   9        -0.0086507260
      7   4  49  23         0.0082479912
      6   5  97  72        -0.0080856750
      7   4  94  71         0.0078290624
      7   4  55   8        -0.0076363925
      7   4 100  82        -0.0074240403

    Largest Tijab Amplitudes:
      5   1  66  56         0.0086755894
      5   1  66  50        -0.0085718650
      5   1  68  56         0.0081607249
      4   3  99  67        -0.0076667344
      5   1  68  50        -0.0074561824
      4   3  99  73        -0.0073289485
      4   2  99   2         0.0071970594
      4   2  99  12         0.0068635361
      4   2 100   9        -0.0067295489
      4   3  51  10        -0.0065176804

    Largest TIjAb Amplitudes:
      6   4  97  99        -0.0219371813
      7   5 100 103        -0.0218196934
      7   5 100 102         0.0188927545
      7   1  55  66        -0.0180652108
      7   5 100  96        -0.0170379528
      7   1  55  68        -0.0168448529
      4   1  23  66        -0.0167168291
      5   3  72  73        -0.0162646628
      4   1  23  68        -0.0155471850
      7   5  55  56        -0.0145651899

    SCF energy       (wfn)                    = -150.873424650690112
    Reference energy (file100)                = -150.873424650691277

    Opposite-spin MP2 correlation energy      =   -0.314507645399473
    Same-spin MP2 correlation energy          =   -0.101864260224783
    MP2 correlation energy                    =   -0.416371905624257
      * MP2 total energy                      = -151.289796556315537

    Opposite-spin CCSD correlation energy     =   -0.342171374842404
    Same-spin CCSD correlation energy         =   -0.095114198978951
    CCSD correlation energy                   =   -0.437285573821356
      * CCSD total energy                     = -151.310710224512633

            **************************
            *                        *
            *        CCTRIPLES       *
            *                        *
            **************************


    Wave function   =    CCSD_T
    Reference wfn   =      UHF

    Nuclear Rep. energy (wfn)                =   23.802583965326388
    SCF energy          (wfn)                = -150.873424650690112
    Reference energy    (file100)            = -150.873424650691277
    CCSD energy         (file100)            =   -0.437285573821356
    Total CCSD energy   (file100)            = -151.310710224512633

    Number of ijk index combinations:
    Spin Case AAA:                                  56
    Spin Case BBB:                                  20
    Spin Case AAB:                                 168
    Spin Case ABB:                                 120
    AAA (T) energy                             =   -0.000395885272469
    BBB (T) energy                             =   -0.000202289315423
    AAB (T) energy                             =   -0.006715657737671
    ABB (T) energy                             =   -0.004990831182860
    (T) energy                                   =   -0.012304663508423
      * CCSD(T) total energy                     = -151.323014888021049

Stephenergy -151.32301488802105
    Psi4 stopped on: Monday, 08 March 2021 05:42PM
    Psi4 wall time for execution: 0:01:44.00

*** Psi4 exiting successfully. Buy a developer a beer!
