
    -----------------------------------------------------------------------
          Psi4: An Open-Source Ab Initio Electronic Structure Package
                               Psi4 1.3.2 release

                         Git: Rev {HEAD} ecbda83 


    R. M. Parrish, L. A. Burns, D. G. A. Smith, A. C. Simmonett,
    A. E. DePrince III, E. G. Hohenstein, U. Bozkaya, A. Yu. Sokolov,
    R. Di Remigio, R. M. Richard, J. F. Gonthier, A. M. James,
    H. R. McAlexander, A. Kumar, M. Saitow, X. Wang, B. P. Pritchard,
    P. Verma, H. F. Schaefer III, K. Patkowski, R. A. King, E. F. Valeev,
    F. A. Evangelista, J. M. Turney, T. D. Crawford, and C. D. Sherrill,
    J. Chem. Theory Comput. 13(7) pp 3185--3197 (2017).
    (doi: 10.1021/acs.jctc.7b00174)


                         Additional Contributions by
    P. Kraus, H. Kruse, M. H. Lechner, M. C. Schieber, R. A. Shaw,
    A. Alenaizan, R. Galvelis, Z. L. Glick, S. Lehtola, and J. P. Misiewicz

    -----------------------------------------------------------------------


    Psi4 started on: Tuesday, 09 March 2021 03:13PM

    Process ID: 11168
    Host:       c1-9.compute.lan
    PSIDATADIR: /apps/gb/PSI4/1.3.2/share/psi4
    Memory:     500.0 MiB
    Threads:    12
    
  ==> Input File <==

--------------------------------------------------------------------------
memory 4 GB

molecule  {
0 3
O   -1.519781476600   -0.028215155400    0.000000000000 
H   -0.556983962500   -0.003535423700    0.000000000000          
H   -1.780720290800    0.896896610700    0.000000000000
O    1.667078096900   -0.028074721100    0.000000000000
}
set {
basis aug-cc-pvtz
reference uhf
e_convergence 10
scf_type pk
freeze_core true
}

set ccenergy {
e_convergence 10
r_convergence 10
}

e = energy('ccsd(t)')

print_out('Stephenergy {}'.format(e))

--------------------------------------------------------------------------

  Memory set to   3.725 GiB by Python driver.

*** tstart() called on c1-9.compute.lan
*** at Tue Mar  9 15:13:30 2021

   => Loading Basis Set <=

    Name: AUG-CC-PVTZ
    Role: ORBITAL
    Keyword: BASIS
    atoms 1, 4 entry O          line   327 file /apps/gb/PSI4/1.3.2/share/psi4/basis/aug-cc-pvtz.gbs 
    atoms 2-3  entry H          line    36 file /apps/gb/PSI4/1.3.2/share/psi4/basis/aug-cc-pvtz.gbs 


         ---------------------------------------------------------
                                   SCF
               by Justin Turney, Rob Parrish, Andy Simmonett
                          and Daniel G. A. Smith
                              UHF Reference
                       12 Threads,   3814 MiB Core
         ---------------------------------------------------------

  ==> Geometry <==

    Molecular point group: cs
    Full point group: Cs

    Geometry (in Angstrom), charge = 0, multiplicity = 3:

       Center              X                  Y                   Z               Mass       
    ------------   -----------------  -----------------  -----------------  -----------------
         O           -1.519781476630    -0.028215155356     0.000000000000    15.994914619570
         H           -0.556983962530    -0.003535423656     0.000000000000     1.007825032230
         H           -1.780720290830     0.896896610744     0.000000000000     1.007825032230
         O            1.667078096870    -0.028074721056     0.000000000000    15.994914619570

  Running in cs symmetry.

  Rotational constants: A =     20.99604  B =      0.19847  C =      0.19661 [cm^-1]
  Rotational constants: A = 629445.34570  B =   5949.98275  C =   5894.26579 [MHz]
  Nuclear repulsion =   22.864576305593566

  Charge       = 0
  Multiplicity = 3
  Electrons    = 18
  Nalpha       = 10
  Nbeta        = 8

  ==> Algorithm <==

  SCF Algorithm Type is PK.
  DIIS enabled.
  MOM disabled.
  Fractional occupation disabled.
  Guess Type is SAD.
  Energy threshold   = 1.00e-10
  Density threshold  = 1.00e-08
  Integral threshold = 0.00e+00

  ==> Primary Basis <==

  Basis Set: AUG-CC-PVTZ
    Blend: AUG-CC-PVTZ
    Number of shells: 46
    Number of basis function: 138
    Number of Cartesian functions: 160
    Spherical Harmonics?: true
    Max angular momentum: 3

  ==> Pre-Iterations <==

   -------------------------------------------------------
    Irrep   Nso     Nmo     Nalpha   Nbeta   Ndocc  Nsocc
   -------------------------------------------------------
     A'        92      92       0       0       0       0
     A"        46      46       0       0       0       0
   -------------------------------------------------------
    Total     138     138      10       8       8       2
   -------------------------------------------------------

  ==> Integral Setup <==

  Using in-core PK algorithm.
   Calculation information:
      Number of atoms:                   4
      Number of AO shells:              46
      Number of primitives:             82
      Number of atomic orbitals:       160
      Number of basis functions:       138

      Integral cutoff                 1.00e-12
      Number of threads:                12

  Performing in-core PK
  Using 91996872 doubles for integral storage.
  We computed 905912 shell quartets total.
  Whereas there are 584821 unique shell quartets.
    54.90 percent of shell quartets recomputed by reordering.

  ==> DiskJK: Disk-Based J/K Matrices <==

    J tasked:                  Yes
    K tasked:                  Yes
    wK tasked:                  No
    Memory [MiB]:             2861
    Schwarz Cutoff:          1E-12

    OpenMP threads:             12

  Minimum eigenvalue in the overlap matrix is 3.0129210241E-04.
  Using Symmetric Orthogonalization.

  SCF Guess: Superposition of Atomic Densities via on-the-fly atomic UHF.

  ==> Iterations <==

                        Total Energy        Delta E     RMS |[F,P]|

   @UHF iter SAD:  -149.40114792499975   -1.49401e+02   0.00000e+00 
   @UHF iter   1:  -150.76361553274128   -1.36247e+00   5.05112e-03 DIIS
   @UHF iter   2:  -150.83796250189508   -7.43470e-02   3.27896e-03 DIIS
   @UHF iter   3:  -150.87310880972578   -3.51463e-02   3.93182e-04 DIIS
   @UHF iter   4:  -150.87422364787281   -1.11484e-03   1.30707e-04 DIIS
   @UHF iter   5:  -150.87435033458658   -1.26687e-04   5.10847e-05 DIIS
   @UHF iter   6:  -150.87438409535838   -3.37608e-05   1.49396e-05 DIIS
   @UHF iter   7:  -150.87438734441588   -3.24906e-06   4.05517e-06 DIIS
   @UHF iter   8:  -150.87438768426045   -3.39845e-07   2.25893e-06 DIIS
   @UHF iter   9:  -150.87438785805793   -1.73797e-07   2.06839e-06 DIIS
   @UHF iter  10:  -150.87438804452484   -1.86467e-07   2.03691e-06 DIIS
   @UHF iter  11:  -150.87438854900611   -5.04481e-07   1.98715e-06 DIIS
   @UHF iter  12:  -150.87439013225074   -1.58324e-06   1.85146e-06 DIIS
   @UHF iter  13:  -150.87439345777452   -3.32552e-06   1.53541e-06 DIIS
   @UHF iter  14:  -150.87439692163014   -3.46386e-06   1.58089e-06 DIIS
   @UHF iter  15:  -150.87439693022921   -8.59907e-09   1.45805e-06 DIIS
   @UHF iter  16:  -150.87439833653158   -1.40630e-06   1.47179e-06 DIIS
   @UHF iter  17:  -150.87439836164847   -2.51169e-08   8.29878e-08 DIIS
   @UHF iter  18:  -150.87439836716419   -5.51572e-09   3.25210e-07 DIIS
   @UHF iter  19:  -150.87439836772921   -5.65024e-10   3.70601e-08 DIIS
   @UHF iter  20:  -150.87439836773649   -7.27596e-12   1.62876e-08 DIIS
   @UHF iter  21:  -150.87439836773788   -1.39266e-12   3.08170e-09 DIIS
  Energy and wave function converged.


  ==> Post-Iterations <==

   @Spin Contamination Metric:   9.364889975E-03
   @S^2 Expected:                2.000000000E+00
   @S^2 Observed:                2.009364890E+00
   @S   Expected:                1.000000000E+00
   @S   Observed:                1.000000000E+00

    Orbital Energies [Eh]
    ---------------------

    Alpha Occupied:                                                       

       1Ap   -20.734945     2Ap   -20.558468     3Ap    -1.444271  
       4Ap    -1.342717     5Ap    -0.734805     1App   -0.734654  
       6Ap    -0.709555     7Ap    -0.636886     8Ap    -0.574672  
       2App   -0.501595  

    Alpha Virtual:                                                        

       9Ap     0.034579    10Ap     0.053278    11Ap     0.127512  
       3App    0.131560    12Ap     0.148056    13Ap     0.161201  
      14Ap     0.183463     4App    0.186307    15Ap     0.211719  
      16Ap     0.241656    17Ap     0.271780     5App    0.282628  
      18Ap     0.293707     6App    0.323355    19Ap     0.372155  
      20Ap     0.393187    21Ap     0.460169    22Ap     0.559327  
       7App    0.600092    23Ap     0.608689    24Ap     0.643388  
      25Ap     0.668789    26Ap     0.712299     8App    0.713087  
       9App    0.734725    10App    0.747319    27Ap     0.766020  
      28Ap     0.798079    11App    0.824784    29Ap     0.851781  
      30Ap     0.865706    12App    0.883505    31Ap     0.923347  
      13App    0.942341    32Ap     0.944425    33Ap     0.956535  
      14App    0.983526    34Ap     0.986070    35Ap     1.043489  
      36Ap     1.128079    37Ap     1.168833    15App    1.177456  
      38Ap     1.194149    16App    1.261554    39Ap     1.272650  
      40Ap     1.324418    17App    1.528540    41Ap     1.556474  
      18App    1.600908    42Ap     1.690479    43Ap     1.819156  
      44Ap     1.826847    19App    1.975612    45Ap     1.975646  
      46Ap     1.995483    20App    2.011224    47Ap     2.017734  
      21App    2.048679    48Ap     2.060906    22App    2.122973  
      49Ap     2.164882    50Ap     2.166398    23App    2.211605  
      24App    2.295019    51Ap     2.302617    52Ap     2.329095  
      53Ap     2.415098    25App    2.449695    54Ap     2.461483  
      26App    2.524431    55Ap     2.535694    56Ap     2.632286  
      57Ap     2.671626    27App    2.728992    58Ap     2.751291  
      59Ap     2.865275    60Ap     2.942523    28App    2.946345  
      61Ap     3.699246    62Ap     3.894653    29App    4.035856  
      30App    4.058530    63Ap     4.076218    31App    4.172823  
      64Ap     4.200864    65Ap     4.274051    32App    4.298994  
      66Ap     4.377589    33App    4.393332    67Ap     4.436504  
      34App    4.440247    68Ap     4.578217    69Ap     4.783376  
      70Ap     4.962547    35App    5.155488    71Ap     5.181378  
      72Ap     5.306718    73Ap     5.374813    36App    5.527266  
      74Ap     5.690547    75Ap     6.197762    37App    6.310238  
      76Ap     6.310280    38App    6.372944    77Ap     6.375704  
      39App    6.520910    78Ap     6.526663    79Ap     6.556997  
      80Ap     6.635640    40App    6.724898    81Ap     6.812349  
      41App    6.818493    82Ap     6.914357    42App    6.933936  
      83Ap     6.967049    84Ap     7.049688    43App    7.147408  
      44App    7.275258    85Ap     7.323246    45App    7.327521  
      86Ap     7.359872    46App    7.442039    87Ap     7.658888  
      88Ap     7.947245    89Ap     7.966598    90Ap     8.811510  
      91Ap     9.398800    92Ap    16.530131  

    Beta Occupied:                                                        

       1Ap   -20.656165     2Ap   -20.558608     3Ap    -1.343323  
       4Ap    -1.101820     5Ap    -0.708547     6Ap    -0.581194  
       7Ap    -0.542152     1App   -0.501650  

    Beta Virtual:                                                         

       8Ap     0.034234     9Ap     0.046191     2App    0.047665  
      10Ap     0.057486    11Ap     0.144217    12Ap     0.151016  
       3App    0.160453    13Ap     0.179817    14Ap     0.210111  
      15Ap     0.218130     4App    0.225938    16Ap     0.251294  
      17Ap     0.273757     5App    0.282960    18Ap     0.295942  
       6App    0.327106    19Ap     0.375978    20Ap     0.403953  
      21Ap     0.460907    22Ap     0.562307     7App    0.632404  
      23Ap     0.638988    24Ap     0.646434    25Ap     0.671831  
      26Ap     0.712967     8App    0.726866     9App    0.735886  
      10App    0.748783    27Ap     0.784968    28Ap     0.810608  
      29Ap     0.856706    11App    0.867633    30Ap     0.918583  
      12App    0.936249    31Ap     0.943928    13App    0.949548  
      32Ap     0.954255    33Ap     0.973880    34Ap     1.015952  
      14App    1.024856    35Ap     1.047569    36Ap     1.154777  
      37Ap     1.176617    15App    1.180769    38Ap     1.219150  
      16App    1.272658    39Ap     1.274848    40Ap     1.335161  
      17App    1.529376    41Ap     1.562116    18App    1.602526  
      42Ap     1.717482    43Ap     1.824381    44Ap     1.834330  
      45Ap     2.002916    19App    2.013711    46Ap     2.013898  
      20App    2.053259    47Ap     2.065966    21App    2.170886  
      48Ap     2.179512    22App    2.179655    49Ap     2.204466  
      50Ap     2.228956    23App    2.249075    24App    2.296963  
      51Ap     2.317775    52Ap     2.343781    53Ap     2.422266  
      25App    2.452126    54Ap     2.462301    26App    2.533077  
      55Ap     2.542932    56Ap     2.638463    57Ap     2.682827  
      27App    2.730155    58Ap     2.758248    59Ap     2.869824  
      60Ap     2.945348    28App    2.947031    61Ap     3.699700  
      62Ap     3.897514    29App    4.036088    30App    4.146163  
      63Ap     4.180307    64Ap     4.243671    31App    4.255105  
      65Ap     4.295770    32App    4.299342    66Ap     4.391996  
      33App    4.393515    34App    4.441764    67Ap     4.467943  
      68Ap     4.579209    69Ap     4.784742    70Ap     4.964844  
      35App    5.155475    71Ap     5.181901    72Ap     5.306942  
      73Ap     5.375885    36App    5.527354    74Ap     5.691186  
      75Ap     6.198227    37App    6.419195    76Ap     6.419220  
      38App    6.448326    77Ap     6.451151    78Ap     6.532940  
      39App    6.575822    79Ap     6.606824    80Ap     6.681709  
      40App    6.729256    81Ap     6.916597    41App    7.004528  
      82Ap     7.005537    42App    7.042190    83Ap     7.071558  
      84Ap     7.129946    43App    7.149733    44App    7.275703  
      85Ap     7.323399    45App    7.328368    86Ap     7.360353  
      46App    7.442482    87Ap     7.660173    88Ap     7.947640  
      89Ap     7.966746    90Ap     8.813966    91Ap     9.473342  
      92Ap    16.530695  

    Final Occupation by Irrep:
             Ap   App 
    DOCC [     7,    1 ]
    SOCC [     1,    1 ]

  @UHF Final Energy:  -150.87439836773788

   => Energetics <=

    Nuclear Repulsion Energy =             22.8645763055935660
    One-Electron Energy =                -253.5119230298605544
    Two-Electron Energy =                  79.7729483565291133
    Total Energy =                       -150.8743983677378537

  UHF NO Occupations:
  HONO-2 :    7 Ap 1.9970292
  HONO-1 :    8 Ap 1.0000000
  HONO-0 :    2App 1.0000000
  LUNO+0 :    9 Ap 0.0029708
  LUNO+1 :   10 Ap 0.0017125
  LUNO+2 :   11 Ap 0.0000024
  LUNO+3 :   12 Ap 0.0000019


Computation Completed


Properties will be evaluated at   0.000000,   0.000000,   0.000000 [a0]

Properties computed using the SCF density matrix

  Nuclear Dipole Moment: [e a0]
     X:    -2.1908      Y:     0.8372      Z:     0.0000

  Electronic Dipole Moment: [e a0]
     X:     2.7520      Y:    -0.2167      Z:     0.0000

  Dipole Moment: [e a0]
     X:     0.5612      Y:     0.6206      Z:     0.0000     Total:     0.8367

  Dipole Moment: [D]
     X:     1.4263      Y:     1.5773      Z:     0.0000     Total:     2.1266


*** tstop() called on c1-9.compute.lan at Tue Mar  9 15:13:38 2021
Module time:
	user time   =      66.44 seconds =       1.11 minutes
	system time =       3.59 seconds =       0.06 minutes
	total time  =          8 seconds =       0.13 minutes
Total time:
	user time   =      66.44 seconds =       1.11 minutes
	system time =       3.59 seconds =       0.06 minutes
	total time  =          8 seconds =       0.13 minutes
 MINTS: Wrapper to libmints.
   by Justin Turney

   Calculation information:
      Number of threads:                12
      Number of atoms:                   4
      Number of AO shells:              46
      Number of SO shells:              46
      Number of primitives:             82
      Number of atomic orbitals:       160
      Number of basis functions:       138

      Number of irreps:                  2
      Integral cutoff                 0.00e+00
      Number of functions per irrep: [  92   46 ]

 OEINTS: Overlap, kinetic, potential, dipole, and quadrupole integrals
         stored in file 35.

      Computing two-electron integrals...done
      Computed 22940060 non-zero two-electron integrals.
        Stored in file 33.


*** tstart() called on c1-9.compute.lan
*** at Tue Mar  9 15:13:42 2021


	Wfn Parameters:
	--------------------
	Wavefunction         = CCSD_T
	Number of irreps     = 2
	Number of MOs        = 138
	Number of active MOs = 136
	AO-Basis             = NONE
	Semicanonical        = false
	Reference            = UHF
	Print Level          = 1

	IRREP	# MOs	# FZDC	# DOCC	# SOCC	# VIRT	# FZVR
	-----	-----	------	------	------	------	------
	 Ap	   92	    2	    5	    1	    84	    0
	 App	   46	    0	    1	    1	    44	    0
	Transforming integrals...
	IWL integrals will be deleted.
	(OO|OO)...
	Presorting SO-basis two-electron integrals.
	Sorting File: SO Ints (nn|nn) nbuckets = 1
	Transforming the one-electron integrals and constructing Fock matrices
	Starting AA/AB first half-transformation.
	Sorting AA/AB half-transformed integrals.
	Starting BB first half-transformation.
	Sorting BB half-transformed integrals.
	First half integral transformation complete.
	Starting AA second half-transformation.
	Starting AB second half-transformation.
	Starting BB second half-transformation.
	Two-electron integral transformation complete.
	(OO|OV)...
	Starting AA second half-transformation.
	Starting AB second half-transformation.
	Starting BB second half-transformation.
	Two-electron integral transformation complete.
	(OO|VV)...
	Starting AA second half-transformation.
	Starting AB second half-transformation.
	Starting BB second half-transformation.
	Two-electron integral transformation complete.
	(OV|OO)...
	Starting AA/AB first half-transformation.
	Sorting AA/AB half-transformed integrals.
	Starting BB first half-transformation.
	Sorting BB half-transformed integrals.
	First half integral transformation complete.
	Starting AA second half-transformation.
	Starting AB second half-transformation.
	Starting BB second half-transformation.
	Two-electron integral transformation complete.
	(OV|OV)...
	Starting AA second half-transformation.
	Starting AB second half-transformation.
	Starting BB second half-transformation.
	Two-electron integral transformation complete.
	(OV|VV)...
	Starting AA second half-transformation.
	Starting AB second half-transformation.
	Starting BB second half-transformation.
	Two-electron integral transformation complete.
	(VV|OO)...
	Starting AA/AB first half-transformation.
	Sorting AA/AB half-transformed integrals.
	Starting BB first half-transformation.
	Sorting BB half-transformed integrals.
	First half integral transformation complete.
	Starting AA second half-transformation.
	Starting AB second half-transformation.
	Starting BB second half-transformation.
	Two-electron integral transformation complete.
	(VV|OV)...
	Starting AA second half-transformation.
	Starting AB second half-transformation.
	Starting BB second half-transformation.
	Two-electron integral transformation complete.
	(VV|VV)...
	Starting AA second half-transformation.
	Starting AB second half-transformation.
	Starting BB second half-transformation.
	Two-electron integral transformation complete.
	Frozen core energy     =   -125.83263644119737

	Size of irrep 0 of <AB|CD> integrals:     19.643 (MW) /    157.141 (MB)
	Size of irrep 1 of <AB|CD> integrals:     13.660 (MW) /    109.283 (MB)
	Total:                                    33.303 (MW) /    266.424 (MB)

	Size of irrep 0 of <ab|cd> integrals:     20.794 (MW) /    166.349 (MB)
	Size of irrep 1 of <ab|cd> integrals:     14.631 (MW) /    117.045 (MB)
	Total:                                    35.424 (MW) /    283.394 (MB)

	Size of irrep 0 of <Ab|Cd> integrals:     83.174 (MW) /    665.395 (MB)
	Size of irrep 1 of <Ab|Cd> integrals:     56.550 (MW) /    452.403 (MB)
	Total:                                   139.725 (MW) /   1117.798 (MB)

	Size of irrep 0 of <IA|BC> integrals:      5.323 (MW) /     42.586 (MB)
	Size of irrep 1 of <IA|BC> integrals:      3.193 (MW) /     25.547 (MB)
	Total:                                     8.517 (MW) /     68.133 (MB)

	Size of irrep 0 of <ia|bc> integrals:      4.348 (MW) /     34.780 (MB)
	Size of irrep 1 of <ia|bc> integrals:      2.372 (MW) /     18.972 (MB)
	Total:                                     6.719 (MW) /     53.752 (MB)

	Size of irrep 0 of <Ia|Bc> integrals:      5.472 (MW) /     43.776 (MB)
	Size of irrep 1 of <Ia|Bc> integrals:      3.309 (MW) /     26.470 (MB)
	Total:                                     8.781 (MW) /     70.246 (MB)

	Size of irrep 0 of <iA|bC> integrals:      4.232 (MW) /     33.853 (MB)
	Size of irrep 1 of <iA|bC> integrals:      2.286 (MW) /     18.289 (MB)
	Total:                                     6.518 (MW) /     52.142 (MB)

	Size of irrep 0 of tIjAb amplitudes:       0.292 (MW) /      2.335 (MB)
	Size of irrep 1 of tIjAb amplitudes:       0.120 (MW) /      0.963 (MB)
	Total:                                     0.412 (MW) /      3.297 (MB)

	Nuclear Rep. energy          =     22.86457630559357
	SCF energy                   =   -150.87439836773788
	One-electron energy          =    -84.35483599637347
	Two-electron (AA) energy     =     10.12664927911611
	Two-electron (BB) energy     =      5.38830267189341
	Two-electron (AB) energy     =     20.93354581322836
	Two-electron energy          =     36.44849776423789
	Reference energy             =   -150.87439836773939

*** tstop() called on c1-9.compute.lan at Tue Mar  9 15:14:32 2021
Module time:
	user time   =     155.44 seconds =       2.59 minutes
	system time =      29.36 seconds =       0.49 minutes
	total time  =         50 seconds =       0.83 minutes
Total time:
	user time   =     228.34 seconds =       3.81 minutes
	system time =      33.79 seconds =       0.56 minutes
	total time  =         62 seconds =       1.03 minutes
            **************************
            *                        *
            *        CCENERGY        *
            *                        *
            **************************

    Nuclear Rep. energy (wfn)     =   22.864576305593566
    SCF energy          (wfn)     = -150.874398367737882
    Reference energy    (file100) = -150.874398367739389

    Input parameters:
    -----------------
    Wave function   =     CCSD_T
    Reference wfn   =     UHF
    Brueckner       =     No
    Memory (Mbytes) =     4000.0
    Maxiter         =     50
    R_Convergence   =     1.0e-10
    E_Convergence   =     1.0e-10
    Restart         =     Yes
    DIIS            =     Yes
    AO Basis        =     NONE
    ABCD            =     NEW
    Cache Level     =     2
    Cache Type      =     LRU
    Print Level     =     1
    Num. of threads =     12
    # Amps to Print =     10
    Print MP2 Amps? =     No
    Analyze T2 Amps =     No
    Print Pair Ener =     No
    Local CC        =     No
    SCS-MP2         =     False
    SCSN-MP2        =     False
    SCS-CCSD        =     False

MP2 correlation energy -0.4166049211248597
                Solving CC Amplitude Equations
                ------------------------------
  Iter             Energy              RMS        T1Diag      D1Diag    New D1Diag    D2Diag
  ----     ---------------------    ---------   ----------  ----------  ----------   --------
     0        -0.416604921124860    0.000e+00    0.000000    0.000000    0.000000    0.000000
     1        -0.427331788414039    5.685e-02    0.010542    0.000000    0.000000    0.000000
     2        -0.435425817812371    1.688e-02    0.011030    0.000000    0.000000    0.000000
     3        -0.437541958185487    8.571e-03    0.012901    0.000000    0.000000    0.000000
     4        -0.437416820855657    2.534e-03    0.013269    0.000000    0.000000    0.000000
     5        -0.437401742821199    1.327e-03    0.013426    0.000000    0.000000    0.000000
     6        -0.437429048819069    5.164e-04    0.013449    0.000000    0.000000    0.000000
     7        -0.437433862685982    2.680e-04    0.013444    0.000000    0.000000    0.000000
     8        -0.437434429734827    9.684e-05    0.013439    0.000000    0.000000    0.000000
     9        -0.437435836054814    6.950e-05    0.013441    0.000000    0.000000    0.000000
    10        -0.437434275833245    5.811e-05    0.013442    0.000000    0.000000    0.000000
    11        -0.437434406175993    5.484e-05    0.013443    0.000000    0.000000    0.000000
    12        -0.437434205743401    5.311e-05    0.013444    0.000000    0.000000    0.000000
    13        -0.437434194170134    5.215e-05    0.013446    0.000000    0.000000    0.000000
    14        -0.437435114478341    5.086e-05    0.013457    0.000000    0.000000    0.000000
    15        -0.437435449668600    4.645e-05    0.013502    0.000000    0.000000    0.000000
    16        -0.437435220034128    3.350e-05    0.013621    0.000000    0.000000    0.000000
    17        -0.437434922514502    1.698e-05    0.013693    0.000000    0.000000    0.000000
    18        -0.437434775974598    7.985e-06    0.013713    0.000000    0.000000    0.000000
    19        -0.437435022513469    3.515e-06    0.013719    0.000000    0.000000    0.000000
    20        -0.437435140569941    1.552e-06    0.013720    0.000000    0.000000    0.000000
    21        -0.437435147470530    6.195e-07    0.013720    0.000000    0.000000    0.000000
    22        -0.437435148566860    2.829e-07    0.013720    0.000000    0.000000    0.000000
    23        -0.437435147850897    1.427e-07    0.013720    0.000000    0.000000    0.000000
    24        -0.437435147049585    5.518e-08    0.013720    0.000000    0.000000    0.000000
    25        -0.437435147953675    2.745e-08    0.013720    0.000000    0.000000    0.000000
    26        -0.437435148390616    1.931e-08    0.013720    0.000000    0.000000    0.000000
    27        -0.437435148523575    1.762e-08    0.013720    0.000000    0.000000    0.000000
    28        -0.437435148501069    1.701e-08    0.013720    0.000000    0.000000    0.000000
    29        -0.437435148406683    1.660e-08    0.013720    0.000000    0.000000    0.000000
    30        -0.437435148218653    1.609e-08    0.013720    0.000000    0.000000    0.000000
    31        -0.437435148242963    1.457e-08    0.013720    0.000000    0.000000    0.000000
    32        -0.437435148492951    9.383e-09    0.013720    0.000000    0.000000    0.000000
    33        -0.437435148589088    4.368e-09    0.013720    0.000000    0.000000    0.000000
    34        -0.437435148649785    1.853e-09    0.013720    0.000000    0.000000    0.000000
    35        -0.437435148657510    7.236e-10    0.013720    0.000000    0.000000    0.000000
    36        -0.437435148656966    2.911e-10    0.013720    0.000000    0.000000    0.000000
    37        -0.437435148654967    1.220e-10    0.013720    0.000000    0.000000    0.000000
    38        -0.437435148656203    5.878e-11    0.013720    0.000000    0.000000    0.000000

    Iterations converged.


    Largest TIA Amplitudes:
              7  87        -0.0124950654
              7  84        -0.0117386859
              4   3         0.0093097495
              7  85        -0.0093093258
              6  84        -0.0080998852
              4  10         0.0080359007
              5   2        -0.0069866124
              5   9        -0.0068813378
              2   2         0.0068714327
              2   4         0.0059502038

    Largest Tia Amplitudes:
              5  86        -0.0122769712
              5  89        -0.0120946355
              5  85        -0.0100239377
              4   1        -0.0082495057
              3   3         0.0078353465
              3  11         0.0074911914
              5  88        -0.0061171002
              3  10        -0.0058550091
              5  87        -0.0057235646
              4   4        -0.0054139624

    Largest TIJAB Amplitudes:
      6   2  92  21         0.0135228869
      6   2 101  38        -0.0097215486
      4   2  29  21        -0.0091743704
      4   2  41  40         0.0084845929
      6   4  92  29         0.0084371298
      6   4 103  40         0.0083759951
      6   2 111  54        -0.0078204344
      7   5  90  17        -0.0077438668
      6   2 102  38         0.0074675652
      4   2  21  10         0.0073558565

    Largest Tijab Amplitudes:
      5   3  92  18        -0.0075437651
      4   1  91  85        -0.0073920913
      5   2 100  17        -0.0067326848
      4   1 106  85        -0.0064621275
      5   3  89  11         0.0062755514
      5   2  93  17        -0.0060161886
      5   2  89  13        -0.0058745212
      4   1  42   1         0.0056010736
      5   2  86  13        -0.0055502270
      5   2  94  13        -0.0051940673

    Largest TIjAb Amplitudes:
      3   2  12  13        -0.0186394190
      6   1  38  85        -0.0161099035
      4   1 103  85        -0.0152075264
      2   1 101  85         0.0149624965
      2   1  38   1        -0.0146160979
      2   1  88  85        -0.0145081461
      5   3  10  11        -0.0140197854
      6   1  14  85         0.0133195515
      4   1  41   1        -0.0131089730
      4   1  89  85         0.0129032402

    SCF energy       (wfn)                    = -150.874398367737882
    Reference energy (file100)                = -150.874398367739389

    Opposite-spin MP2 correlation energy      =   -0.314632841563656
    Same-spin MP2 correlation energy          =   -0.101972079561203
    MP2 correlation energy                    =   -0.416604921124860
      * MP2 total energy                      = -151.291003288864260

    Opposite-spin CCSD correlation energy     =   -0.342180191430246
    Same-spin CCSD correlation energy         =   -0.095254957225957
    CCSD correlation energy                   =   -0.437435148656203
      * CCSD total energy                     = -151.311833516395581

            **************************
            *                        *
            *        CCTRIPLES       *
            *                        *
            **************************


    Wave function   =    CCSD_T
    Reference wfn   =      UHF

    Nuclear Rep. energy (wfn)                =   22.864576305593566
    SCF energy          (wfn)                = -150.874398367737882
    Reference energy    (file100)            = -150.874398367739389
    CCSD energy         (file100)            =   -0.437435148656203
    Total CCSD energy   (file100)            = -151.311833516395581

    Number of ijk index combinations:
    Spin Case AAA:                                  56
    Spin Case BBB:                                  20
    Spin Case AAB:                                 168
    Spin Case ABB:                                 120
    AAA (T) energy                             =   -0.000399688871689
    BBB (T) energy                             =   -0.000202651253825
    AAB (T) energy                             =   -0.006744942574025
    ABB (T) energy                             =   -0.005010448770108
    (T) energy                                   =   -0.012357731469647
      * CCSD(T) total energy                     = -151.324191247865230

Stephenergy -151.32419124786523
    Psi4 stopped on: Tuesday, 09 March 2021 03:18PM
    Psi4 wall time for execution: 0:05:00.14

*** Psi4 exiting successfully. Buy a developer a beer!
