
    -----------------------------------------------------------------------
          Psi4: An Open-Source Ab Initio Electronic Structure Package
                               Psi4 1.3.2 release

                         Git: Rev {HEAD} ecbda83 


    R. M. Parrish, L. A. Burns, D. G. A. Smith, A. C. Simmonett,
    A. E. DePrince III, E. G. Hohenstein, U. Bozkaya, A. Yu. Sokolov,
    R. Di Remigio, R. M. Richard, J. F. Gonthier, A. M. James,
    H. R. McAlexander, A. Kumar, M. Saitow, X. Wang, B. P. Pritchard,
    P. Verma, H. F. Schaefer III, K. Patkowski, R. A. King, E. F. Valeev,
    F. A. Evangelista, J. M. Turney, T. D. Crawford, and C. D. Sherrill,
    J. Chem. Theory Comput. 13(7) pp 3185--3197 (2017).
    (doi: 10.1021/acs.jctc.7b00174)


                         Additional Contributions by
    P. Kraus, H. Kruse, M. H. Lechner, M. C. Schieber, R. A. Shaw,
    A. Alenaizan, R. Galvelis, Z. L. Glick, S. Lehtola, and J. P. Misiewicz

    -----------------------------------------------------------------------


    Psi4 started on: Monday, 08 March 2021 05:32PM

    Process ID: 89467
    Host:       c2-18.compute.lan
    PSIDATADIR: /apps/gb/PSI4/1.3.2/share/psi4
    Memory:     500.0 MiB
    Threads:    12
    
  ==> Input File <==

--------------------------------------------------------------------------
memory 4 GB

molecule  {
0 3
O    0.000000000000    0.000000000000    1.263550001736
H    0.000000000000   -0.758594748568    1.852060024136
H   -0.000000000000    0.758594748568    1.852060024136
O    0.000000000000    0.000000000000   -1.496943239264
}
set {
basis aug-cc-pvtz
reference uhf
e_convergence 10
scf_type pk
freeze_core true
}

set ccenergy {
e_convergence 10
r_convergence 10
}

e = energy('ccsd(t)')

print_out('Stephenergy {}'.format(e))

--------------------------------------------------------------------------

  Memory set to   3.725 GiB by Python driver.

*** tstart() called on c2-18.compute.lan
*** at Mon Mar  8 17:32:42 2021

   => Loading Basis Set <=

    Name: AUG-CC-PVTZ
    Role: ORBITAL
    Keyword: BASIS
    atoms 1, 4 entry O          line   327 file /apps/gb/PSI4/1.3.2/share/psi4/basis/aug-cc-pvtz.gbs 
    atoms 2-3  entry H          line    36 file /apps/gb/PSI4/1.3.2/share/psi4/basis/aug-cc-pvtz.gbs 


         ---------------------------------------------------------
                                   SCF
               by Justin Turney, Rob Parrish, Andy Simmonett
                          and Daniel G. A. Smith
                              UHF Reference
                       12 Threads,   3814 MiB Core
         ---------------------------------------------------------

  ==> Geometry <==

    Molecular point group: c2v
    Full point group: C2v

    Geometry (in Angstrom), charge = 0, multiplicity = 3:

       Center              X                  Y                   Z               Mass       
    ------------   -----------------  -----------------  -----------------  -----------------
         O            0.000000000000     0.000000000000     1.263550001736    15.994914619570
         H            0.000000000000    -0.758594748568     1.852060024136     1.007825032230
         H           -0.000000000000     0.758594748568     1.852060024136     1.007825032230
         O            0.000000000000     0.000000000000    -1.496943239264    15.994914619570

  Running in c2v symmetry.

  Rotational constants: A =     14.53321  B =      0.24684  C =      0.24272 [cm^-1]
  Rotational constants: A = 435694.82208  B =   7400.18185  C =   7276.59054 [MHz]
  Nuclear repulsion =   23.901687882469037

  Charge       = 0
  Multiplicity = 3
  Electrons    = 18
  Nalpha       = 10
  Nbeta        = 8

  ==> Algorithm <==

  SCF Algorithm Type is PK.
  DIIS enabled.
  MOM disabled.
  Fractional occupation disabled.
  Guess Type is SAD.
  Energy threshold   = 1.00e-10
  Density threshold  = 1.00e-08
  Integral threshold = 0.00e+00

  ==> Primary Basis <==

  Basis Set: AUG-CC-PVTZ
    Blend: AUG-CC-PVTZ
    Number of shells: 46
    Number of basis function: 138
    Number of Cartesian functions: 160
    Spherical Harmonics?: true
    Max angular momentum: 3

  ==> Pre-Iterations <==

   -------------------------------------------------------
    Irrep   Nso     Nmo     Nalpha   Nbeta   Ndocc  Nsocc
   -------------------------------------------------------
     A1        54      54       0       0       0       0
     A2        17      17       0       0       0       0
     B1        29      29       0       0       0       0
     B2        38      38       0       0       0       0
   -------------------------------------------------------
    Total     138     138      10       8       8       2
   -------------------------------------------------------

  ==> Integral Setup <==

  Using in-core PK algorithm.
   Calculation information:
      Number of atoms:                   4
      Number of AO shells:              46
      Number of primitives:             82
      Number of atomic orbitals:       160
      Number of basis functions:       138

      Integral cutoff                 1.00e-12
      Number of threads:                12

  Performing in-core PK
  Using 91996872 doubles for integral storage.
  We computed 910960 shell quartets total.
  Whereas there are 584821 unique shell quartets.
    55.77 percent of shell quartets recomputed by reordering.

  ==> DiskJK: Disk-Based J/K Matrices <==

    J tasked:                  Yes
    K tasked:                  Yes
    wK tasked:                  No
    Memory [MiB]:             2861
    Schwarz Cutoff:          1E-12

    OpenMP threads:             12

  Minimum eigenvalue in the overlap matrix is 3.2104108425E-04.
  Using Symmetric Orthogonalization.

  SCF Guess: Superposition of Atomic Densities via on-the-fly atomic UHF.

  ==> Iterations <==

                        Total Energy        Delta E     RMS |[F,P]|

   @UHF iter SAD:  -149.38359984605853   -1.49384e+02   0.00000e+00 
   @UHF iter   1:  -150.76997647626675   -1.38638e+00   6.69406e-03 DIIS
   @UHF iter   2:  -150.84088552383128   -7.09090e-02   4.24595e-03 DIIS
   @UHF iter   3:  -150.87203976870080   -3.11542e-02   5.60061e-04 DIIS
   @UHF iter   4:  -150.87342492229868   -1.38515e-03   1.70644e-04 DIIS
   @UHF iter   5:  -150.87355878970519   -1.33867e-04   6.97149e-05 DIIS
   @UHF iter   6:  -150.87359179602890   -3.30063e-05   2.08717e-05 DIIS
   @UHF iter   7:  -150.87359490239140   -3.10636e-06   5.36712e-06 DIIS
   @UHF iter   8:  -150.87359512742592   -2.25035e-07   1.50421e-06 DIIS
   @UHF iter   9:  -150.87359514467630   -1.72504e-08   3.80341e-07 DIIS
   @UHF iter  10:  -150.87359514585103   -1.17473e-09   1.83237e-07 DIIS
   @UHF iter  11:  -150.87359514621781   -3.66782e-10   7.00823e-08 DIIS
   @UHF iter  12:  -150.87359514627218   -5.43707e-11   1.49974e-08 DIIS
   @UHF iter  13:  -150.87359514627400   -1.81899e-12   4.45537e-09 DIIS
  Energy and wave function converged.


  ==> Post-Iterations <==

   @Spin Contamination Metric:   9.539410850E-03
   @S^2 Expected:                2.000000000E+00
   @S^2 Observed:                2.009539411E+00
   @S   Expected:                1.000000000E+00
   @S   Observed:                1.000000000E+00

    Orbital Energies [Eh]
    ---------------------

    Alpha Occupied:                                                       

       1A1   -20.684257     2A1   -20.570979     3A1    -1.393733  
       4A1    -1.356115     1B2    -0.719583     5A1    -0.688169  
       1B1    -0.685009     6A1    -0.586653     2B2    -0.586018  
       2B1    -0.514167  

    Alpha Virtual:                                                        

       7A1     0.029575     3B2     0.047677     8A1     0.118394  
       3B1     0.154107     9A1     0.159503     4B2     0.180318  
       5B2     0.187115     4B1     0.192772    10A1     0.198162  
       1A2     0.263701     6B2     0.264390    11A1     0.265223  
      12A1     0.314388     5B1     0.327011    13A1     0.376005  
       7B2     0.380432    14A1     0.450274     8B2     0.464587  
       9B2     0.600081     6B1     0.643843    15A1     0.647702  
       2A2     0.658205    16A1     0.666970    17A1     0.697984  
       3A2     0.721718    10B2     0.723696     7B1     0.768341  
      18A1     0.792792    19A1     0.819643     8B1     0.837928  
      20A1     0.861138     9B1     0.901245    11B2     0.918619  
       4A2     0.925103    12B2     0.946811    13B2     0.981051  
      21A1     0.991050    10B1     1.014420    22A1     1.047069  
      14B2     1.051954    11B1     1.123302     5A2     1.177187  
      23A1     1.192404    15B2     1.200127    16B2     1.328673  
      24A1     1.335777    25A1     1.448844     6A2     1.507747  
      12B1     1.595492    26A1     1.667761    27A1     1.811589  
      17B2     1.823539    18B2     1.978279    28A1     2.040980  
      13B1     2.048230    19B2     2.054303     7A2     2.057660  
      14B1     2.059183    29A1     2.079805    30A1     2.115052  
       8A2     2.119142    20B2     2.137155    31A1     2.142256  
      15B1     2.147122    32A1     2.253001    21B2     2.271083  
      16B1     2.302923     9A2     2.312081    17B1     2.436852  
      33A1     2.474122    22B2     2.481686    34A1     2.489698  
      35A1     2.696844    18B1     2.716282    23B2     2.720748  
      36A1     2.843929    24B2     2.861496    10A2     2.880855  
      25B2     3.694438    37A1     3.755261    11A2     4.014491  
      19B1     4.080934    20B1     4.099973    38A1     4.141702  
      26B2     4.184475    27B2     4.284215    21B1     4.289958  
      39A1     4.354937    12A2     4.382706    40A1     4.427873  
      22B1     4.454348    28B2     4.516590    41A1     4.793060  
      29B2     4.843884    30B2     5.144430    13A2     5.148008  
      31B2     5.250533    42A1     5.346036    23B1     5.520485  
      43A1     5.687609    44A1     6.201435    24B1     6.390060  
      45A1     6.410327    14A2     6.410678    32B2     6.424038  
      25B1     6.435880    33B2     6.488983    46A1     6.540457  
      34B2     6.581048    26B1     6.718057    27B1     6.903296  
      47A1     6.907462    15A2     6.924849    48A1     6.944088  
      35B2     6.986516    49A1     7.047038    28B1     7.136420  
      29B1     7.279983    16A2     7.309102    36B2     7.312005  
      17A2     7.352936    50A1     7.438756    51A1     7.546854  
      52A1     7.911312    37B2     7.920457    38B2     8.812832  
      53A1     8.874595    54A1    15.819614  

    Beta Occupied:                                                        

       1A1   -20.605382     2A1   -20.570496     3A1    -1.355411  
       4A1    -1.050909     1B2    -0.719239     5A1    -0.588526  
       1B1    -0.513477     2B2    -0.495426  

    Beta Virtual:                                                         

       6A1     0.029417     3B2     0.047759     2B1     0.086682  
       7A1     0.092013     8A1     0.141119     9A1     0.167055  
       3B1     0.170620     4B2     0.180925     5B2     0.190735  
      10A1     0.225697     4B1     0.253410     1A2     0.263703  
       6B2     0.264830    11A1     0.288616    12A1     0.316809  
       5B1     0.328298     7B2     0.380604    13A1     0.386452  
      14A1     0.451343     8B2     0.464789     9B2     0.601726  
      15A1     0.660616     6B1     0.667645     2A2     0.672593  
      16A1     0.673857    17A1     0.715302     3A2     0.722197  
      10B2     0.735882     7B1     0.779777    18A1     0.806639  
       8B1     0.847128    19A1     0.851806     4A2     0.925507  
      20A1     0.927945    11B2     0.936509    12B2     0.953680  
      13B2     0.984858     9B1     0.987172    21A1     0.998294  
      14B2     1.053062    22A1     1.053367    10B1     1.061061  
      11B1     1.139861     5A2     1.177388    23A1     1.193885  
      15B2     1.202817    16B2     1.331113    24A1     1.392375  
      25A1     1.487301     6A2     1.508178    12B1     1.597475  
      26A1     1.698462    27A1     1.816796    17B2     1.823874  
      18B2     1.979754    28A1     2.070635    13B1     2.071018  
      19B2     2.071705     7A2     2.082329    29A1     2.100275  
      14B1     2.101214    30A1     2.156122    20B2     2.183705  
       8A2     2.202319    31A1     2.208718    15B1     2.259780  
      32A1     2.310774     9A2     2.312211    16B1     2.318315  
      21B2     2.322051    17B1     2.445101    33A1     2.484094  
      22B2     2.484524    34A1     2.520851    35A1     2.704171  
      18B1     2.718047    23B2     2.721665    36A1     2.856215  
      24B2     2.861646    10A2     2.880891    25B2     3.695347  
      37A1     3.755395    11A2     4.014520    19B1     4.083449  
      38A1     4.173928    26B2     4.220253    20B1     4.260012  
      21B1     4.294714    27B2     4.294881    12A2     4.382816  
      39A1     4.425707    22B1     4.459594    40A1     4.472189  
      28B2     4.516674    41A1     4.804164    29B2     4.844046  
      30B2     5.144621    13A2     5.148086    31B2     5.250975  
      42A1     5.346687    23B1     5.520601    43A1     5.692373  
      44A1     6.203076    24B1     6.485940    14A2     6.487506  
      32B2     6.488018    45A1     6.494012    25B1     6.499935  
      33B2     6.523891    34B2     6.609859    46A1     6.612244  
      26B1     6.725374    47A1     6.961766    15A2     7.038399  
      48A1     7.042369    27B1     7.085883    35B2     7.098367  
      28B1     7.136830    49A1     7.173903    29B1     7.284087  
      16A2     7.309393    36B2     7.312200    17A2     7.353354  
      50A1     7.441558    51A1     7.547917    52A1     7.911902  
      37B2     7.920819    38B2     8.813217    53A1     8.953862  
      54A1    15.819947  

    Final Occupation by Irrep:
             A1    A2    B1    B2 
    DOCC [     5,    0,    1,    2 ]
    SOCC [     1,    0,    1,    0 ]

  @UHF Final Energy:  -150.87359514627400

   => Energetics <=

    Nuclear Repulsion Energy =             23.9016878824690373
    One-Electron Energy =                -255.8670180659957794
    Two-Electron Energy =                  81.0917350372527181
    Total Energy =                       -150.8735951462739990

  UHF NO Occupations:
  HONO-2 :    5 A1 1.9970486
  HONO-1 :    6 A1 1.0000000
  HONO-0 :    2 B1 1.0000000
  LUNO+0 :    7 A1 0.0029514
  LUNO+1 :    3 B2 0.0017972
  LUNO+2 :    8 A1 0.0000230
  LUNO+3 :    9 A1 0.0000024


Computation Completed


Properties will be evaluated at   0.000000,   0.000000,   0.000000 [a0]

Properties computed using the SCF density matrix

  Nuclear Dipole Moment: [e a0]
     X:     0.0000      Y:     0.0000      Z:     3.4714

  Electronic Dipole Moment: [e a0]
     X:     0.0000      Y:     0.0000      Z:    -2.6346

  Dipole Moment: [e a0]
     X:     0.0000      Y:     0.0000      Z:     0.8368     Total:     0.8368

  Dipole Moment: [D]
     X:     0.0000      Y:     0.0000      Z:     2.1269     Total:     2.1269


*** tstop() called on c2-18.compute.lan at Mon Mar  8 17:32:47 2021
Module time:
	user time   =      38.95 seconds =       0.65 minutes
	system time =       2.30 seconds =       0.04 minutes
	total time  =          5 seconds =       0.08 minutes
Total time:
	user time   =      38.95 seconds =       0.65 minutes
	system time =       2.30 seconds =       0.04 minutes
	total time  =          5 seconds =       0.08 minutes
 MINTS: Wrapper to libmints.
   by Justin Turney

   Calculation information:
      Number of threads:                12
      Number of atoms:                   4
      Number of AO shells:              46
      Number of SO shells:              37
      Number of primitives:             82
      Number of atomic orbitals:       160
      Number of basis functions:       138

      Number of irreps:                  4
      Integral cutoff                 0.00e+00
      Number of functions per irrep: [  54   17   29   38 ]

 OEINTS: Overlap, kinetic, potential, dipole, and quadrupole integrals
         stored in file 35.

      Computing two-electron integrals...done
      Computed 11330805 non-zero two-electron integrals.
        Stored in file 33.


*** tstart() called on c2-18.compute.lan
*** at Mon Mar  8 17:32:50 2021


	Wfn Parameters:
	--------------------
	Wavefunction         = CCSD_T
	Number of irreps     = 4
	Number of MOs        = 138
	Number of active MOs = 136
	AO-Basis             = NONE
	Semicanonical        = false
	Reference            = UHF
	Print Level          = 1

	IRREP	# MOs	# FZDC	# DOCC	# SOCC	# VIRT	# FZVR
	-----	-----	------	------	------	------	------
	 A1	   54	    2	    3	    1	    48	    0
	 A2	   17	    0	    0	    0	    17	    0
	 B1	   29	    0	    1	    1	    27	    0
	 B2	   38	    0	    2	    0	    36	    0
	Transforming integrals...
	IWL integrals will be deleted.
	(OO|OO)...
	Presorting SO-basis two-electron integrals.
	Sorting File: SO Ints (nn|nn) nbuckets = 1
	Transforming the one-electron integrals and constructing Fock matrices
	Starting AA/AB first half-transformation.
	Sorting AA/AB half-transformed integrals.
	Starting BB first half-transformation.
	Sorting BB half-transformed integrals.
	First half integral transformation complete.
	Starting AA second half-transformation.
	Starting AB second half-transformation.
	Starting BB second half-transformation.
	Two-electron integral transformation complete.
	(OO|OV)...
	Starting AA second half-transformation.
	Starting AB second half-transformation.
	Starting BB second half-transformation.
	Two-electron integral transformation complete.
	(OO|VV)...
	Starting AA second half-transformation.
	Starting AB second half-transformation.
	Starting BB second half-transformation.
	Two-electron integral transformation complete.
	(OV|OO)...
	Starting AA/AB first half-transformation.
	Sorting AA/AB half-transformed integrals.
	Starting BB first half-transformation.
	Sorting BB half-transformed integrals.
	First half integral transformation complete.
	Starting AA second half-transformation.
	Starting AB second half-transformation.
	Starting BB second half-transformation.
	Two-electron integral transformation complete.
	(OV|OV)...
	Starting AA second half-transformation.
	Starting AB second half-transformation.
	Starting BB second half-transformation.
	Two-electron integral transformation complete.
	(OV|VV)...
	Starting AA second half-transformation.
	Starting AB second half-transformation.
	Starting BB second half-transformation.
	Two-electron integral transformation complete.
	(VV|OO)...
	Starting AA/AB first half-transformation.
	Sorting AA/AB half-transformed integrals.
	Starting BB first half-transformation.
	Sorting BB half-transformed integrals.
	First half integral transformation complete.
	Starting AA second half-transformation.
	Starting AB second half-transformation.
	Starting BB second half-transformation.
	Two-electron integral transformation complete.
	(VV|OV)...
	Starting AA second half-transformation.
	Starting AB second half-transformation.
	Starting BB second half-transformation.
	Two-electron integral transformation complete.
	(VV|VV)...
	Starting AA second half-transformation.
	Starting AB second half-transformation.
	Starting BB second half-transformation.
	Two-electron integral transformation complete.
	Frozen core energy     =   -126.39934541256474

	Size of irrep 0 of <AB|CD> integrals:      5.040 (MW) /     40.320 (MB)
	Size of irrep 1 of <AB|CD> integrals:      3.197 (MW) /     25.576 (MB)
	Size of irrep 2 of <AB|CD> integrals:      3.640 (MW) /     29.124 (MB)
	Size of irrep 3 of <AB|CD> integrals:      4.783 (MW) /     38.264 (MB)
	Total:                                    16.660 (MW) /    133.283 (MB)

	Size of irrep 0 of <ab|cd> integrals:      5.382 (MW) /     43.059 (MB)
	Size of irrep 1 of <ab|cd> integrals:      3.389 (MW) /     27.114 (MB)
	Size of irrep 2 of <ab|cd> integrals:      3.936 (MW) /     31.490 (MB)
	Size of irrep 3 of <ab|cd> integrals:      5.018 (MW) /     40.141 (MB)
	Total:                                    17.726 (MW) /    141.804 (MB)

	Size of irrep 0 of <Ab|Cd> integrals:     22.024 (MW) /    176.194 (MB)
	Size of irrep 1 of <Ab|Cd> integrals:     13.170 (MW) /    105.357 (MB)
	Size of irrep 2 of <Ab|Cd> integrals:     15.140 (MW) /    121.119 (MB)
	Size of irrep 3 of <Ab|Cd> integrals:     19.598 (MW) /    156.787 (MB)
	Total:                                    69.932 (MW) /    559.457 (MB)

	Size of irrep 0 of <IA|BC> integrals:      1.469 (MW) /     11.748 (MB)
	Size of irrep 1 of <IA|BC> integrals:      0.694 (MW) /      5.550 (MB)
	Size of irrep 2 of <IA|BC> integrals:      0.908 (MW) /      7.266 (MB)
	Size of irrep 3 of <IA|BC> integrals:      1.198 (MW) /      9.588 (MB)
	Total:                                     4.269 (MW) /     34.152 (MB)

	Size of irrep 0 of <ia|bc> integrals:      1.178 (MW) /      9.426 (MB)
	Size of irrep 1 of <ia|bc> integrals:      0.527 (MW) /      4.212 (MB)
	Size of irrep 2 of <ia|bc> integrals:      0.663 (MW) /      5.301 (MB)
	Size of irrep 3 of <ia|bc> integrals:      0.999 (MW) /      7.992 (MB)
	Total:                                     3.366 (MW) /     26.931 (MB)

	Size of irrep 0 of <Ia|Bc> integrals:      1.521 (MW) /     12.164 (MB)
	Size of irrep 1 of <Ia|Bc> integrals:      0.711 (MW) /      5.690 (MB)
	Size of irrep 2 of <Ia|Bc> integrals:      0.949 (MW) /      7.595 (MB)
	Size of irrep 3 of <Ia|Bc> integrals:      1.222 (MW) /      9.775 (MB)
	Total:                                     4.403 (MW) /     35.225 (MB)

	Size of irrep 0 of <iA|bC> integrals:      1.140 (MW) /      9.123 (MB)
	Size of irrep 1 of <iA|bC> integrals:      0.512 (MW) /      4.094 (MB)
	Size of irrep 2 of <iA|bC> integrals:      0.634 (MW) /      5.074 (MB)
	Size of irrep 3 of <iA|bC> integrals:      0.978 (MW) /      7.827 (MB)
	Total:                                     3.265 (MW) /     26.118 (MB)

	Size of irrep 0 of tIjAb amplitudes:       0.084 (MW) /      0.676 (MB)
	Size of irrep 1 of tIjAb amplitudes:       0.022 (MW) /      0.174 (MB)
	Size of irrep 2 of tIjAb amplitudes:       0.039 (MW) /      0.311 (MB)
	Size of irrep 3 of tIjAb amplitudes:       0.062 (MW) /      0.496 (MB)
	Total:                                     0.207 (MW) /      1.657 (MB)

	Nuclear Rep. energy          =     23.90168788246904
	SCF energy                   =   -150.87359514627400
	One-electron energy          =    -85.49944062797093
	Two-electron (AA) energy     =     10.37779366002719
	Two-electron (BB) energy     =      5.47412182425741
	Two-electron (AB) energy     =     21.27158752750645
	Two-electron energy          =     37.12350301179104
	Reference energy             =   -150.87359514627559

*** tstop() called on c2-18.compute.lan at Mon Mar  8 17:33:54 2021
Module time:
	user time   =     497.88 seconds =       8.30 minutes
	system time =      35.35 seconds =       0.59 minutes
	total time  =         64 seconds =       1.07 minutes
Total time:
	user time   =     541.83 seconds =       9.03 minutes
	system time =      38.30 seconds =       0.64 minutes
	total time  =         72 seconds =       1.20 minutes
            **************************
            *                        *
            *        CCENERGY        *
            *                        *
            **************************

    Nuclear Rep. energy (wfn)     =   23.901687882469037
    SCF energy          (wfn)     = -150.873595146273999
    Reference energy    (file100) = -150.873595146275591

    Input parameters:
    -----------------
    Wave function   =     CCSD_T
    Reference wfn   =     UHF
    Brueckner       =     No
    Memory (Mbytes) =     4000.0
    Maxiter         =     50
    R_Convergence   =     1.0e-10
    E_Convergence   =     1.0e-10
    Restart         =     Yes
    DIIS            =     Yes
    AO Basis        =     NONE
    ABCD            =     NEW
    Cache Level     =     2
    Cache Type      =     LRU
    Print Level     =     1
    Num. of threads =     12
    # Amps to Print =     10
    Print MP2 Amps? =     No
    Analyze T2 Amps =     No
    Print Pair Ener =     No
    Local CC        =     No
    SCS-MP2         =     False
    SCSN-MP2        =     False
    SCS-CCSD        =     False

MP2 correlation energy -0.4161922727607694
                Solving CC Amplitude Equations
                ------------------------------
  Iter             Energy              RMS        T1Diag      D1Diag    New D1Diag    D2Diag
  ----     ---------------------    ---------   ----------  ----------  ----------   --------
     0        -0.416192272760769    0.000e+00    0.000000    0.000000    0.000000    0.000000
     1        -0.427004586921017    5.692e-02    0.010573    0.000000    0.000000    0.000000
     2        -0.435089347955992    1.700e-02    0.011072    0.000000    0.000000    0.000000
     3        -0.437236092911369    8.773e-03    0.012995    0.000000    0.000000    0.000000
     4        -0.437109504694690    2.687e-03    0.013407    0.000000    0.000000    0.000000
     5        -0.437100074324864    1.400e-03    0.013603    0.000000    0.000000    0.000000
     6        -0.437129320656389    5.301e-04    0.013629    0.000000    0.000000    0.000000
     7        -0.437132297639438    2.149e-04    0.013624    0.000000    0.000000    0.000000
     8        -0.437133218867000    6.669e-05    0.013619    0.000000    0.000000    0.000000
     9        -0.437133905995347    2.391e-05    0.013619    0.000000    0.000000    0.000000
    10        -0.437133003762993    9.216e-06    0.013618    0.000000    0.000000    0.000000
    11        -0.437133168872149    4.025e-06    0.013618    0.000000    0.000000    0.000000
    12        -0.437133129504686    1.463e-06    0.013618    0.000000    0.000000    0.000000
    13        -0.437133137663432    7.399e-07    0.013618    0.000000    0.000000    0.000000
    14        -0.437133160660138    3.098e-07    0.013618    0.000000    0.000000    0.000000
    15        -0.437133162342863    1.121e-07    0.013618    0.000000    0.000000    0.000000
    16        -0.437133162958399    5.081e-08    0.013618    0.000000    0.000000    0.000000
    17        -0.437133163523594    1.944e-08    0.013618    0.000000    0.000000    0.000000
    18        -0.437133163373393    1.027e-08    0.013618    0.000000    0.000000    0.000000
    19        -0.437133163152352    4.010e-09    0.013618    0.000000    0.000000    0.000000
    20        -0.437133163140303    2.160e-09    0.013618    0.000000    0.000000    0.000000
    21        -0.437133163117177    8.209e-10    0.013618    0.000000    0.000000    0.000000
    22        -0.437133163115892    3.287e-10    0.013618    0.000000    0.000000    0.000000
    23        -0.437133163115154    1.716e-10    0.013618    0.000000    0.000000    0.000000
    24        -0.437133163114983    7.045e-11    0.013618    0.000000    0.000000    0.000000

    Iterations converged.


    Largest TIA Amplitudes:
              5  65        -0.0133262007
              5  67        -0.0111461862
              7  94         0.0104590448
              5  66        -0.0096408159
              4  65        -0.0074689857
              3   1         0.0074383093
              2   3         0.0072204787
              4  66         0.0071767594
              3   5        -0.0055464843
              3   6         0.0054386169

    Largest Tia Amplitudes:
              3  67        -0.0147516678
              2   2         0.0135802505
              3  69        -0.0107558001
              5  96         0.0079949695
              3  66        -0.0077865071
              2   1        -0.0069255961
              2   7         0.0056789089
              2   6        -0.0055166974
              1  25        -0.0054133748
              4 109         0.0053701656

    Largest TIJAB Amplitudes:
      7   4 100  71         0.0142308349
      7   4  55  23        -0.0135941052
      7   2 100  12        -0.0120876330
      4   2  71  12         0.0109560168
      6   5  50   9        -0.0086428345
      7   4  49  23         0.0082569679
      6   5  97  72        -0.0080801459
      7   4  94  71         0.0078831783
      7   4  55   8        -0.0076521757
      7   4 100  82        -0.0073130286

    Largest Tijab Amplitudes:
      5   1  66  56         0.0086687340
      5   1  66  50        -0.0085598850
      5   1  68  56         0.0081637955
      4   3  99  67        -0.0076274921
      5   1  68  50        -0.0074544690
      4   3  99  73        -0.0072629130
      4   2  99   2         0.0071840646
      4   2  99  12         0.0069022086
      4   2 100   9        -0.0067228515
      4   3  51  10        -0.0065562060

    Largest TIjAb Amplitudes:
      6   4  97  99        -0.0217138778
      7   5 100 103        -0.0215695877
      7   5 100 102         0.0191681938
      7   1  55  66        -0.0180413807
      7   5 100  96        -0.0171134076
      7   1  55  68        -0.0168415939
      4   1  23  66        -0.0166553489
      5   3  72  73        -0.0161637893
      4   1  23  68        -0.0155038078
      7   5  55  56        -0.0145514146

    SCF energy       (wfn)                    = -150.873595146273999
    Reference energy (file100)                = -150.873595146275591

    Opposite-spin MP2 correlation energy      =   -0.314361560772959
    Same-spin MP2 correlation energy          =   -0.101830711987811
    MP2 correlation energy                    =   -0.416192272760769
      * MP2 total energy                      = -151.289787419036372

    Opposite-spin CCSD correlation energy     =   -0.342014093999371
    Same-spin CCSD correlation energy         =   -0.095119069115612
    CCSD correlation energy                   =   -0.437133163114983
      * CCSD total energy                     = -151.310728309390583

            **************************
            *                        *
            *        CCTRIPLES       *
            *                        *
            **************************


    Wave function   =    CCSD_T
    Reference wfn   =      UHF

    Nuclear Rep. energy (wfn)                =   23.901687882469037
    SCF energy          (wfn)                = -150.873595146273999
    Reference energy    (file100)            = -150.873595146275591
    CCSD energy         (file100)            =   -0.437133163114983
    Total CCSD energy   (file100)            = -151.310728309390583

    Number of ijk index combinations:
    Spin Case AAA:                                  56
    Spin Case BBB:                                  20
    Spin Case AAB:                                 168
    Spin Case ABB:                                 120
    AAA (T) energy                             =   -0.000395763556686
    BBB (T) energy                             =   -0.000202234998273
    AAB (T) energy                             =   -0.006705073079298
    ABB (T) energy                             =   -0.004980576682431
    (T) energy                                   =   -0.012283648316687
      * CCSD(T) total energy                     = -151.323011957707251

Stephenergy -151.32301195770725
    Psi4 stopped on: Monday, 08 March 2021 05:35PM
    Psi4 wall time for execution: 0:02:25.64

*** Psi4 exiting successfully. Buy a developer a beer!
