
    -----------------------------------------------------------------------
          Psi4: An Open-Source Ab Initio Electronic Structure Package
                               Psi4 1.3.2 release

                         Git: Rev {HEAD} ecbda83 


    R. M. Parrish, L. A. Burns, D. G. A. Smith, A. C. Simmonett,
    A. E. DePrince III, E. G. Hohenstein, U. Bozkaya, A. Yu. Sokolov,
    R. Di Remigio, R. M. Richard, J. F. Gonthier, A. M. James,
    H. R. McAlexander, A. Kumar, M. Saitow, X. Wang, B. P. Pritchard,
    P. Verma, H. F. Schaefer III, K. Patkowski, R. A. King, E. F. Valeev,
    F. A. Evangelista, J. M. Turney, T. D. Crawford, and C. D. Sherrill,
    J. Chem. Theory Comput. 13(7) pp 3185--3197 (2017).
    (doi: 10.1021/acs.jctc.7b00174)


                         Additional Contributions by
    P. Kraus, H. Kruse, M. H. Lechner, M. C. Schieber, R. A. Shaw,
    A. Alenaizan, R. Galvelis, Z. L. Glick, S. Lehtola, and J. P. Misiewicz

    -----------------------------------------------------------------------


    Psi4 started on: Wednesday, 10 March 2021 09:36AM

    Process ID: 46171
    Host:       b1-8.compute.lan
    PSIDATADIR: /apps/gb/PSI4/1.3.2/share/psi4
    Memory:     500.0 MiB
    Threads:    12
    
  ==> Input File <==

--------------------------------------------------------------------------
memory 4 GB

molecule  {
0 3
O    0.000000000000    0.000000000000   -1.588748526300
H    0.000000000000   -0.752993714200   -0.989765661800
H   -0.000000000000    0.752993714200   -0.989765661800
O    0.000000000000   -0.000000000000    1.713476995800
}
set {
basis aug-cc-pvtz
reference uhf
e_convergence 10
scf_type pk
freeze_core true
}

set ccenergy {
e_convergence 10
r_convergence 10
}

e = energy('ccsd(t)')

print_out('Stephenergy {}'.format(e))

--------------------------------------------------------------------------

  Memory set to   3.725 GiB by Python driver.

*** tstart() called on b1-8.compute.lan
*** at Wed Mar 10 09:36:49 2021

   => Loading Basis Set <=

    Name: AUG-CC-PVTZ
    Role: ORBITAL
    Keyword: BASIS
    atoms 1, 4 entry O          line   327 file /apps/gb/PSI4/1.3.2/share/psi4/basis/aug-cc-pvtz.gbs 
    atoms 2-3  entry H          line    36 file /apps/gb/PSI4/1.3.2/share/psi4/basis/aug-cc-pvtz.gbs 


         ---------------------------------------------------------
                                   SCF
               by Justin Turney, Rob Parrish, Andy Simmonett
                          and Daniel G. A. Smith
                              UHF Reference
                       12 Threads,   3814 MiB Core
         ---------------------------------------------------------

  ==> Geometry <==

    Molecular point group: c2v
    Full point group: C2v

    Geometry (in Angstrom), charge = 0, multiplicity = 3:

       Center              X                  Y                   Z               Mass       
    ------------   -----------------  -----------------  -----------------  -----------------
         O            0.000000000000     0.000000000000    -1.588748526308    15.994914619570
         H            0.000000000000    -0.752993714200    -0.989765661808     1.007825032230
         H           -0.000000000000     0.752993714200    -0.989765661808     1.007825032230
         O            0.000000000000     0.000000000000     1.713476995792    15.994914619570

  Running in c2v symmetry.

  Rotational constants: A =     14.75023  B =      0.18876  C =      0.18637 [cm^-1]
  Rotational constants: A = 442200.63399  B =   5658.77914  C =   5587.27951 [MHz]
  Nuclear repulsion =   22.424217681803430

  Charge       = 0
  Multiplicity = 3
  Electrons    = 18
  Nalpha       = 10
  Nbeta        = 8

  ==> Algorithm <==

  SCF Algorithm Type is PK.
  DIIS enabled.
  MOM disabled.
  Fractional occupation disabled.
  Guess Type is SAD.
  Energy threshold   = 1.00e-10
  Density threshold  = 1.00e-08
  Integral threshold = 0.00e+00

  ==> Primary Basis <==

  Basis Set: AUG-CC-PVTZ
    Blend: AUG-CC-PVTZ
    Number of shells: 46
    Number of basis function: 138
    Number of Cartesian functions: 160
    Spherical Harmonics?: true
    Max angular momentum: 3

  ==> Pre-Iterations <==

   -------------------------------------------------------
    Irrep   Nso     Nmo     Nalpha   Nbeta   Ndocc  Nsocc
   -------------------------------------------------------
     A1        54      54       0       0       0       0
     A2        17      17       0       0       0       0
     B1        29      29       0       0       0       0
     B2        38      38       0       0       0       0
   -------------------------------------------------------
    Total     138     138      10       8       8       2
   -------------------------------------------------------

  ==> Integral Setup <==

  Using in-core PK algorithm.
   Calculation information:
      Number of atoms:                   4
      Number of AO shells:              46
      Number of primitives:             82
      Number of atomic orbitals:       160
      Number of basis functions:       138

      Integral cutoff                 1.00e-12
      Number of threads:                12

  Performing in-core PK
  Using 91996872 doubles for integral storage.
  We computed 915455 shell quartets total.
  Whereas there are 584821 unique shell quartets.
    56.54 percent of shell quartets recomputed by reordering.

  ==> DiskJK: Disk-Based J/K Matrices <==

    J tasked:                  Yes
    K tasked:                  Yes
    wK tasked:                  No
    Memory [MiB]:             2861
    Schwarz Cutoff:          1E-12

    OpenMP threads:             12

  Minimum eigenvalue in the overlap matrix is 3.6938220640E-04.
  Using Symmetric Orthogonalization.

  SCF Guess: Superposition of Atomic Densities via on-the-fly atomic UHF.

  ==> Iterations <==

                        Total Energy        Delta E     RMS |[F,P]|

   @UHF iter SAD:  -149.38645500809741   -1.49386e+02   0.00000e+00 
   @UHF iter   1:  -150.76692019266883   -1.38047e+00   6.89715e-03 DIIS
   @UHF iter   2:  -150.83811257900487   -7.11924e-02   4.46997e-03 DIIS
   @UHF iter   3:  -150.87198739036148   -3.38748e-02   5.35786e-04 DIIS
   @UHF iter   4:  -150.87310308356899   -1.11569e-03   1.77791e-04 DIIS
   @UHF iter   5:  -150.87323063712472   -1.27554e-04   7.03502e-05 DIIS
   @UHF iter   6:  -150.87326386157505   -3.32245e-05   2.00739e-05 DIIS
   @UHF iter   7:  -150.87326674328727   -2.88171e-06   4.77581e-06 DIIS
   @UHF iter   8:  -150.87326692123085   -1.77944e-07   1.20396e-06 DIIS
   @UHF iter   9:  -150.87326693212040   -1.08896e-08   2.41823e-07 DIIS
   @UHF iter  10:  -150.87326693252439   -4.03986e-10   8.68619e-08 DIIS
   @UHF iter  11:  -150.87326693259217   -6.77858e-11   4.35327e-08 DIIS
   @UHF iter  12:  -150.87326693261500   -2.28226e-11   1.05068e-08 DIIS
   @UHF iter  13:  -150.87326693261602   -1.02318e-12   3.66440e-09 DIIS
  Energy and wave function converged.


  ==> Post-Iterations <==

   @Spin Contamination Metric:   9.178810832E-03
   @S^2 Expected:                2.000000000E+00
   @S^2 Observed:                2.009178811E+00
   @S   Expected:                1.000000000E+00
   @S   Observed:                1.000000000E+00

    Orbital Energies [Eh]
    ---------------------

    Alpha Occupied:                                                       

       1A1   -20.730109     2A1   -20.562440     3A1    -1.439295  
       4A1    -1.346247     1B2    -0.730733     1B1    -0.730218  
       2B2    -0.706403     5A1    -0.634458     6A1    -0.579415  
       2B1    -0.504716  

    Alpha Virtual:                                                        

       7A1     0.035690     3B2     0.048574     3B1     0.131727  
       8A1     0.133766     9A1     0.149541     4B2     0.158531  
       4B1     0.182597     5B2     0.185205    10A1     0.189875  
      11A1     0.254978     6B2     0.259709     1A2     0.265979  
      12A1     0.274074     5B1     0.321850    13A1     0.372729  
       7B2     0.383650    14A1     0.454211     8B2     0.472725  
       2A2     0.609663     9B2     0.621108    15A1     0.621656  
      16A1     0.625213     6B1     0.643571    17A1     0.717667  
       3A2     0.731396    10B2     0.740158     7B1     0.747729  
      18A1     0.798535     8B1     0.836117    19A1     0.844359  
      11B2     0.851573     9B1     0.917003     4A2     0.937849  
      12B2     0.942398    20A1     0.945579    21A1     0.960096  
      10B1     0.973276    13B2     0.978276    22A1     1.051292  
      14B2     1.056032    11B1     1.134642     5A2     1.188244  
      23A1     1.191244    24A1     1.263523    15B2     1.271477  
      16B2     1.283664    25A1     1.369602     6A2     1.510698  
      12B1     1.590118    26A1     1.669061    27A1     1.831432  
      17B2     1.836717    18B2     1.969859    13B1     1.977694  
      19B2     1.996194    28A1     2.005147     7A2     2.013786  
      14B1     2.029591    29A1     2.038944     8A2     2.047631  
      30A1     2.090955    20B2     2.092549    15B1     2.130463  
      31A1     2.165341    16B1     2.286792    21B2     2.287096  
       9A2     2.333646    32A1     2.367395    33A1     2.404504  
      34A1     2.488462    22B2     2.502461    17B1     2.523137  
      35A1     2.580467    23B2     2.691595    18B1     2.721380  
      36A1     2.825176    10A2     2.889663    24B2     2.910071  
      25B2     3.668514    37A1     3.750188    11A2     4.035371  
      19B1     4.051647    26B2     4.094956    20B1     4.105563  
      38A1     4.172193    21B1     4.279188    27B2     4.279219  
      39A1     4.357860    12A2     4.384366    22B1     4.418166  
      40A1     4.438418    28B2     4.532878    41A1     4.754555  
      29B2     4.855139    13A2     5.148137    30B2     5.169135  
      31B2     5.247445    42A1     5.372571    23B1     5.528419  
      43A1     5.673582    44A1     6.203126    24B1     6.314157  
      32B2     6.315465    14A2     6.374208    45A1     6.381761  
      25B1     6.406831    33B2     6.466848    46A1     6.493778  
      34B2     6.531454    26B1     6.748240    15A2     6.819940  
      47A1     6.821623    48A1     6.932550    27B1     6.933376  
      35B2     6.966142    49A1     7.036814    28B1     7.136534  
      29B1     7.262063    16A2     7.318577    36B2     7.348304  
      17A2     7.358453    50A1     7.366475    51A1     7.551831  
      52A1     7.895011    37B2     7.939620    53A1     8.598982  
      38B2     8.813914    54A1    15.725195  

    Beta Occupied:                                                        

       1A1   -20.651564     2A1   -20.562490     3A1    -1.346492  
       4A1    -1.097066     1B2    -0.706611     5A1    -0.585581  
       6A1    -0.538879     1B1    -0.504694  

    Beta Virtual:                                                         

       2B2     0.034591     7A1     0.036862     2B1     0.049074  
       3B2     0.069600     8A1     0.139782     9A1     0.152033  
       3B1     0.160720     4B2     0.180389    10A1     0.190220  
       5B2     0.223651     4B1     0.225653     6B2     0.263969  
      11A1     0.264010     1A2     0.266379    12A1     0.276031  
       5B1     0.322773    13A1     0.376175     7B2     0.389762  
      14A1     0.455534     8B2     0.473211     9B2     0.623210  
      15A1     0.627213     2A2     0.641739    16A1     0.653985  
       6B1     0.655022    17A1     0.718882     3A2     0.732726  
       7B1     0.750484    10B2     0.752062    18A1     0.811083  
      19A1     0.852355     8B1     0.911346     9B1     0.933903  
       4A2     0.939688    11B2     0.941004    12B2     0.947722  
      20A1     0.951424    21A1     0.961289    13B2     1.017768  
      10B1     1.029721    22A1     1.052118    14B2     1.060093  
      11B1     1.142259     5A2     1.189082    23A1     1.195299  
      15B2     1.272374    24A1     1.294864    16B2     1.300349  
      25A1     1.411590     6A2     1.510876    12B1     1.590302  
      26A1     1.684525    27A1     1.833089    17B2     1.838004  
      18B2     1.980239    13B1     2.015610    19B2     2.024386  
      28A1     2.030203     7A2     2.049938    14B1     2.051875  
      29A1     2.101725    20B2     2.141451    30A1     2.172307  
       8A2     2.183506    15B1     2.195521    31A1     2.207774  
      16B1     2.292951    21B2     2.327258     9A2     2.337393  
      32A1     2.381188    33A1     2.419858    34A1     2.491896  
      22B2     2.508428    17B1     2.528002    35A1     2.582789  
      23B2     2.691845    18B1     2.721502    36A1     2.825710  
      10A2     2.889702    24B2     2.912051    25B2     3.668627  
      37A1     3.750295    11A2     4.035484    19B1     4.103589  
      38A1     4.184946    20B1     4.225416    26B2     4.249081  
      21B1     4.279320    27B2     4.294305    39A1     4.371287  
      12A2     4.384427    22B1     4.418519    40A1     4.459740  
      28B2     4.533392    41A1     4.754925    29B2     4.855367  
      13A2     5.148165    30B2     5.169144    31B2     5.247500  
      42A1     5.373050    23B1     5.528422    43A1     5.673925  
      44A1     6.206044    24B1     6.422954    32B2     6.424061  
      14A2     6.450800    45A1     6.455911    25B1     6.461606  
      33B2     6.503055    46A1     6.541702    34B2     6.551909  
      26B1     6.755407    47A1     6.933856    15A2     7.008803  
      48A1     7.011388    27B1     7.039792    35B2     7.075070  
      49A1     7.115866    28B1     7.137231    29B1     7.262031  
      16A2     7.318622    36B2     7.349978    17A2     7.358542  
      50A1     7.367595    51A1     7.552941    52A1     7.895230  
      37B2     7.939602    53A1     8.682752    38B2     8.813831  
      54A1    15.725192  

    Final Occupation by Irrep:
             A1    A2    B1    B2 
    DOCC [     6,    0,    1,    1 ]
    SOCC [     0,    0,    1,    1 ]

  @UHF Final Energy:  -150.87326693261602

   => Energetics <=

    Nuclear Repulsion Energy =             22.4242176818034302
    One-Electron Energy =                -252.6375583896724208
    Two-Electron Energy =                  79.3400737752529608
    Total Energy =                       -150.8732669326160192

  UHF NO Occupations:
  HONO-2 :    6 A1 1.9970764
  HONO-1 :    2 B2 1.0000000
  HONO-0 :    2 B1 1.0000000
  LUNO+0 :    7 A1 0.0029236
  LUNO+1 :    8 A1 0.0016679
  LUNO+2 :    9 A1 0.0000024
  LUNO+3 :   10 A1 0.0000007


Computation Completed


Properties will be evaluated at   0.000000,   0.000000,   0.000000 [a0]

Properties computed using the SCF density matrix

  Nuclear Dipole Moment: [e a0]
     X:     0.0000      Y:     0.0000      Z:    -1.8552

  Electronic Dipole Moment: [e a0]
     X:     0.0000      Y:     0.0000      Z:     2.6960

  Dipole Moment: [e a0]
     X:     0.0000      Y:     0.0000      Z:     0.8408     Total:     0.8408

  Dipole Moment: [D]
     X:     0.0000      Y:     0.0000      Z:     2.1371     Total:     2.1371


*** tstop() called on b1-8.compute.lan at Wed Mar 10 09:36:53 2021
Module time:
	user time   =      35.87 seconds =       0.60 minutes
	system time =       0.91 seconds =       0.02 minutes
	total time  =          4 seconds =       0.07 minutes
Total time:
	user time   =      35.87 seconds =       0.60 minutes
	system time =       0.91 seconds =       0.02 minutes
	total time  =          4 seconds =       0.07 minutes
 MINTS: Wrapper to libmints.
   by Justin Turney

   Calculation information:
      Number of threads:                12
      Number of atoms:                   4
      Number of AO shells:              46
      Number of SO shells:              37
      Number of primitives:             82
      Number of atomic orbitals:       160
      Number of basis functions:       138

      Number of irreps:                  4
      Integral cutoff                 0.00e+00
      Number of functions per irrep: [  54   17   29   38 ]

 OEINTS: Overlap, kinetic, potential, dipole, and quadrupole integrals
         stored in file 35.

      Computing two-electron integrals...done
      Computed 11341724 non-zero two-electron integrals.
        Stored in file 33.


*** tstart() called on b1-8.compute.lan
*** at Wed Mar 10 09:36:55 2021


	Wfn Parameters:
	--------------------
	Wavefunction         = CCSD_T
	Number of irreps     = 4
	Number of MOs        = 138
	Number of active MOs = 136
	AO-Basis             = NONE
	Semicanonical        = false
	Reference            = UHF
	Print Level          = 1

	IRREP	# MOs	# FZDC	# DOCC	# SOCC	# VIRT	# FZVR
	-----	-----	------	------	------	------	------
	 A1	   54	    2	    4	    0	    48	    0
	 A2	   17	    0	    0	    0	    17	    0
	 B1	   29	    0	    1	    1	    27	    0
	 B2	   38	    0	    1	    1	    36	    0
	Transforming integrals...
	IWL integrals will be deleted.
	(OO|OO)...
	Presorting SO-basis two-electron integrals.
	Sorting File: SO Ints (nn|nn) nbuckets = 1
	Transforming the one-electron integrals and constructing Fock matrices
	Starting AA/AB first half-transformation.
	Sorting AA/AB half-transformed integrals.
	Starting BB first half-transformation.
	Sorting BB half-transformed integrals.
	First half integral transformation complete.
	Starting AA second half-transformation.
	Starting AB second half-transformation.
	Starting BB second half-transformation.
	Two-electron integral transformation complete.
	(OO|OV)...
	Starting AA second half-transformation.
	Starting AB second half-transformation.
	Starting BB second half-transformation.
	Two-electron integral transformation complete.
	(OO|VV)...
	Starting AA second half-transformation.
	Starting AB second half-transformation.
	Starting BB second half-transformation.
	Two-electron integral transformation complete.
	(OV|OO)...
	Starting AA/AB first half-transformation.
	Sorting AA/AB half-transformed integrals.
	Starting BB first half-transformation.
	Sorting BB half-transformed integrals.
	First half integral transformation complete.
	Starting AA second half-transformation.
	Starting AB second half-transformation.
	Starting BB second half-transformation.
	Two-electron integral transformation complete.
	(OV|OV)...
	Starting AA second half-transformation.
	Starting AB second half-transformation.
	Starting BB second half-transformation.
	Two-electron integral transformation complete.
	(OV|VV)...
	Starting AA second half-transformation.
	Starting AB second half-transformation.
	Starting BB second half-transformation.
	Two-electron integral transformation complete.
	(VV|OO)...
	Starting AA/AB first half-transformation.
	Sorting AA/AB half-transformed integrals.
	Starting BB first half-transformation.
	Sorting BB half-transformed integrals.
	First half integral transformation complete.
	Starting AA second half-transformation.
	Starting AB second half-transformation.
	Starting BB second half-transformation.
	Two-electron integral transformation complete.
	(VV|OV)...
	Starting AA second half-transformation.
	Starting AB second half-transformation.
	Starting BB second half-transformation.
	Two-electron integral transformation complete.
	(VV|VV)...
	Starting AA second half-transformation.
	Starting AB second half-transformation.
	Starting BB second half-transformation.
	Two-electron integral transformation complete.
	Frozen core energy     =   -125.65220977002994

	Size of irrep 0 of <AB|CD> integrals:      5.040 (MW) /     40.320 (MB)
	Size of irrep 1 of <AB|CD> integrals:      3.197 (MW) /     25.576 (MB)
	Size of irrep 2 of <AB|CD> integrals:      3.640 (MW) /     29.124 (MB)
	Size of irrep 3 of <AB|CD> integrals:      4.783 (MW) /     38.264 (MB)
	Total:                                    16.660 (MW) /    133.283 (MB)

	Size of irrep 0 of <ab|cd> integrals:      5.327 (MW) /     42.615 (MB)
	Size of irrep 1 of <ab|cd> integrals:      3.430 (MW) /     27.439 (MB)
	Size of irrep 2 of <ab|cd> integrals:      3.893 (MW) /     31.142 (MB)
	Size of irrep 3 of <ab|cd> integrals:      5.072 (MW) /     40.572 (MB)
	Total:                                    17.721 (MW) /    141.768 (MB)

	Size of irrep 0 of <Ab|Cd> integrals:     21.912 (MW) /    175.294 (MB)
	Size of irrep 1 of <Ab|Cd> integrals:     13.242 (MW) /    105.939 (MB)
	Size of irrep 2 of <Ab|Cd> integrals:     15.062 (MW) /    120.497 (MB)
	Size of irrep 3 of <Ab|Cd> integrals:     19.705 (MW) /    157.638 (MB)
	Total:                                    69.921 (MW) /    559.368 (MB)

	Size of irrep 0 of <IA|BC> integrals:      1.469 (MW) /     11.748 (MB)
	Size of irrep 1 of <IA|BC> integrals:      0.694 (MW) /      5.550 (MB)
	Size of irrep 2 of <IA|BC> integrals:      0.908 (MW) /      7.266 (MB)
	Size of irrep 3 of <IA|BC> integrals:      1.198 (MW) /      9.588 (MB)
	Total:                                     4.269 (MW) /     34.152 (MB)

	Size of irrep 0 of <ia|bc> integrals:      1.220 (MW) /      9.758 (MB)
	Size of irrep 1 of <ia|bc> integrals:      0.493 (MW) /      3.941 (MB)
	Size of irrep 2 of <ia|bc> integrals:      0.698 (MW) /      5.588 (MB)
	Size of irrep 3 of <ia|bc> integrals:      0.959 (MW) /      7.675 (MB)
	Total:                                     3.370 (MW) /     26.961 (MB)

	Size of irrep 0 of <Ia|Bc> integrals:      1.507 (MW) /     12.058 (MB)
	Size of irrep 1 of <Ia|Bc> integrals:      0.721 (MW) /      5.764 (MB)
	Size of irrep 2 of <Ia|Bc> integrals:      0.939 (MW) /      7.514 (MB)
	Size of irrep 3 of <Ia|Bc> integrals:      1.234 (MW) /      9.872 (MB)
	Total:                                     4.401 (MW) /     35.208 (MB)

	Size of irrep 0 of <iA|bC> integrals:      1.194 (MW) /      9.549 (MB)
	Size of irrep 1 of <iA|bC> integrals:      0.477 (MW) /      3.814 (MB)
	Size of irrep 2 of <iA|bC> integrals:      0.671 (MW) /      5.371 (MB)
	Size of irrep 3 of <iA|bC> integrals:      0.928 (MW) /      7.422 (MB)
	Total:                                     3.270 (MW) /     26.156 (MB)

	Size of irrep 0 of tIjAb amplitudes:       0.094 (MW) /      0.749 (MB)
	Size of irrep 1 of tIjAb amplitudes:       0.015 (MW) /      0.116 (MB)
	Size of irrep 2 of tIjAb amplitudes:       0.047 (MW) /      0.373 (MB)
	Size of irrep 3 of tIjAb amplitudes:       0.053 (MW) /      0.426 (MB)
	Total:                                     0.208 (MW) /      1.664 (MB)

	Nuclear Rep. energy          =     22.42421768180343
	SCF energy                   =   -150.87326693261602
	One-electron energy          =    -83.83974183253950
	Two-electron (AA) energy     =     10.04368007829748
	Two-electron (BB) energy     =      5.34347036835196
	Two-electron (AB) energy     =     20.80731654149917
	Two-electron energy          =     36.19446698814860
	Reference energy             =   -150.87326693261741

*** tstop() called on b1-8.compute.lan at Wed Mar 10 09:37:16 2021
Module time:
	user time   =     155.45 seconds =       2.59 minutes
	system time =       7.70 seconds =       0.13 minutes
	total time  =         21 seconds =       0.35 minutes
Total time:
	user time   =     196.63 seconds =       3.28 minutes
	system time =       8.92 seconds =       0.15 minutes
	total time  =         27 seconds =       0.45 minutes
            **************************
            *                        *
            *        CCENERGY        *
            *                        *
            **************************

    Nuclear Rep. energy (wfn)     =   22.424217681803430
    SCF energy          (wfn)     = -150.873266932616019
    Reference energy    (file100) = -150.873266932617412

    Input parameters:
    -----------------
    Wave function   =     CCSD_T
    Reference wfn   =     UHF
    Brueckner       =     No
    Memory (Mbytes) =     4000.0
    Maxiter         =     50
    R_Convergence   =     1.0e-10
    E_Convergence   =     1.0e-10
    Restart         =     Yes
    DIIS            =     Yes
    AO Basis        =     NONE
    ABCD            =     NEW
    Cache Level     =     2
    Cache Type      =     LRU
    Print Level     =     1
    Num. of threads =     12
    # Amps to Print =     10
    Print MP2 Amps? =     No
    Analyze T2 Amps =     No
    Print Pair Ener =     No
    Local CC        =     No
    SCS-MP2         =     False
    SCSN-MP2        =     False
    SCS-CCSD        =     False

MP2 correlation energy -0.4159593535495103
                Solving CC Amplitude Equations
                ------------------------------
  Iter             Energy              RMS        T1Diag      D1Diag    New D1Diag    D2Diag
  ----     ---------------------    ---------   ----------  ----------  ----------   --------
     0        -0.415959353549510    0.000e+00    0.000000    0.000000    0.000000    0.000000
     1        -0.426802454085715    5.648e-02    0.010392    0.000000    0.000000    0.000000
     2        -0.434909976854152    1.681e-02    0.010904    0.000000    0.000000    0.000000
     3        -0.437007680387802    8.445e-03    0.012735    0.000000    0.000000    0.000000
     4        -0.436883495419193    2.494e-03    0.013085    0.000000    0.000000    0.000000
     5        -0.436870048248848    1.277e-03    0.013232    0.000000    0.000000    0.000000
     6        -0.436895795176378    5.014e-04    0.013249    0.000000    0.000000    0.000000
     7        -0.436900257620048    2.387e-04    0.013241    0.000000    0.000000    0.000000
     8        -0.436900929132233    7.046e-05    0.013235    0.000000    0.000000    0.000000
     9        -0.436902192823152    3.191e-05    0.013235    0.000000    0.000000    0.000000
    10        -0.436900925444296    1.333e-05    0.013235    0.000000    0.000000    0.000000
    11        -0.436901029818964    7.372e-06    0.013235    0.000000    0.000000    0.000000
    12        -0.436900985781365    3.685e-06    0.013236    0.000000    0.000000    0.000000
    13        -0.436900993480713    1.803e-06    0.013236    0.000000    0.000000    0.000000
    14        -0.436901034286999    7.492e-07    0.013236    0.000000    0.000000    0.000000
    15        -0.436901034533037    1.853e-07    0.013236    0.000000    0.000000    0.000000
    16        -0.436901034637565    1.105e-07    0.013236    0.000000    0.000000    0.000000
    17        -0.436901035565589    3.138e-08    0.013236    0.000000    0.000000    0.000000
    18        -0.436901035147302    1.381e-08    0.013236    0.000000    0.000000    0.000000
    19        -0.436901034947589    4.259e-09    0.013236    0.000000    0.000000    0.000000
    20        -0.436901034954845    1.900e-09    0.013236    0.000000    0.000000    0.000000
    21        -0.436901034953011    8.526e-10    0.013236    0.000000    0.000000    0.000000
    22        -0.436901034956839    3.717e-10    0.013236    0.000000    0.000000    0.000000
    23        -0.436901034962354    1.794e-10    0.013236    0.000000    0.000000    0.000000
    24        -0.436901034961529    8.783e-11    0.013236    0.000000    0.000000    0.000000

    Iterations converged.


    Largest TIA Amplitudes:
              5  67        -0.0138464813
              5  65        -0.0123265368
              2   2         0.0096775118
              6  93        -0.0086411786
              5  66        -0.0085529293
              4  65        -0.0083429456
              3   6        -0.0072998200
              2   6        -0.0066389590
              3   1         0.0058926735
              4  70        -0.0053408260

    Largest Tia Amplitudes:
              4  68        -0.0138945979
              4  66        -0.0129174327
              4  65        -0.0090881988
              2   6        -0.0090384384
              2   2         0.0071754033
              1  11        -0.0052156494
              3   2        -0.0051335278
              5 109         0.0050294035
              4  82         0.0042843762
              2   1         0.0042760405

    Largest TIJAB Amplitudes:
      6   4 100  70         0.0167257785
      4   2  70  11        -0.0106719437
      6   2 100  11         0.0102624112
      6   4  55  22        -0.0097631386
      4   2  70  12         0.0089602174
      6   2 100  12        -0.0089554938
      7   5  50  10        -0.0089072137
      6   4 115  81         0.0085166201
      7   3  97   6        -0.0085033677
      6   4 100  81        -0.0083907756

    Largest Tijab Amplitudes:
      5   4  50  10        -0.0087519661
      5   2  99   6        -0.0080716117
      5   2 100   8        -0.0080554661
      3   1  78  65        -0.0075331535
      5   4  53  10        -0.0074895467
      5   4  99  68        -0.0074833739
      5   4  99  71        -0.0073440285
      4   2  70  10         0.0072735808
      3   1  69  65        -0.0070960633
      4   2  68   6        -0.0070576820

    Largest TIjAb Amplitudes:
      7   5  97  99        -0.0192126150
      4   1  22  65         0.0161756630
      2   1  77  65         0.0157463730
      7   5  98 100        -0.0155318840
      7   5 103  99        -0.0148917192
      3   2   6   6        -0.0146500084
      6   1  55  65         0.0146074662
      2   3  11  11         0.0144871703
      6   1  49  65         0.0142590988
      6   1  22  94         0.0141880439

    SCF energy       (wfn)                    = -150.873266932616019
    Reference energy (file100)                = -150.873266932617412

    Opposite-spin MP2 correlation energy      =   -0.314289045270564
    Same-spin MP2 correlation energy          =   -0.101670308278947
    MP2 correlation energy                    =   -0.415959353549510
      * MP2 total energy                      = -151.289226286166922

    Opposite-spin CCSD correlation energy     =   -0.341960948683346
    Same-spin CCSD correlation energy         =   -0.094940086278183
    CCSD correlation energy                   =   -0.436901034961529
      * CCSD total energy                     = -151.310167967578934

            **************************
            *                        *
            *        CCTRIPLES       *
            *                        *
            **************************


    Wave function   =    CCSD_T
    Reference wfn   =      UHF

    Nuclear Rep. energy (wfn)                =   22.424217681803430
    SCF energy          (wfn)                = -150.873266932616019
    Reference energy    (file100)            = -150.873266932617412
    CCSD energy         (file100)            =   -0.436901034961529
    Total CCSD energy   (file100)            = -151.310167967578934

    Number of ijk index combinations:
    Spin Case AAA:                                  56
    Spin Case BBB:                                  20
    Spin Case AAB:                                 168
    Spin Case ABB:                                 120
    AAA (T) energy                             =   -0.000394783091583
    BBB (T) energy                             =   -0.000199291074648
    AAB (T) energy                             =   -0.006694247833506
    ABB (T) energy                             =   -0.004964881707938
    (T) energy                                   =   -0.012253203707675
      * CCSD(T) total energy                     = -151.322421171286607

Stephenergy -151.3224211712866
    Psi4 stopped on: Wednesday, 10 March 2021 09:37AM
    Psi4 wall time for execution: 0:01:10.06

*** Psi4 exiting successfully. Buy a developer a beer!
