
    -----------------------------------------------------------------------
          Psi4: An Open-Source Ab Initio Electronic Structure Package
                               Psi4 1.3.2 release

                         Git: Rev {HEAD} ecbda83 


    R. M. Parrish, L. A. Burns, D. G. A. Smith, A. C. Simmonett,
    A. E. DePrince III, E. G. Hohenstein, U. Bozkaya, A. Yu. Sokolov,
    R. Di Remigio, R. M. Richard, J. F. Gonthier, A. M. James,
    H. R. McAlexander, A. Kumar, M. Saitow, X. Wang, B. P. Pritchard,
    P. Verma, H. F. Schaefer III, K. Patkowski, R. A. King, E. F. Valeev,
    F. A. Evangelista, J. M. Turney, T. D. Crawford, and C. D. Sherrill,
    J. Chem. Theory Comput. 13(7) pp 3185--3197 (2017).
    (doi: 10.1021/acs.jctc.7b00174)


                         Additional Contributions by
    P. Kraus, H. Kruse, M. H. Lechner, M. C. Schieber, R. A. Shaw,
    A. Alenaizan, R. Galvelis, Z. L. Glick, S. Lehtola, and J. P. Misiewicz

    -----------------------------------------------------------------------


    Psi4 started on: Monday, 08 March 2021 05:26PM

    Process ID: 30618
    Host:       c2-1.compute.lan
    PSIDATADIR: /apps/gb/PSI4/1.3.2/share/psi4
    Memory:     500.0 MiB
    Threads:    12
    
  ==> Input File <==

--------------------------------------------------------------------------
memory 4 GB

molecule  {
0 3
O   -0.000000000000    0.000000000000    1.259811948900
H    0.000000000000   -0.760493697200    1.848418848300
H   -0.000000000000    0.760493697200    1.848418848300
O   -0.000000000000    0.000000000000   -1.492746332000
}
set {
basis aug-cc-pvtz
reference uhf
e_convergence 10
scf_type pk
freeze_core true
}

set ccenergy {
e_convergence 10
r_convergence 10
}

e = energy('ccsd(t)')

print_out('Stephenergy {}'.format(e))

--------------------------------------------------------------------------

  Memory set to   3.725 GiB by Python driver.

*** tstart() called on c2-1.compute.lan
*** at Mon Mar  8 17:26:09 2021

   => Loading Basis Set <=

    Name: AUG-CC-PVTZ
    Role: ORBITAL
    Keyword: BASIS
    atoms 1, 4 entry O          line   327 file /apps/gb/PSI4/1.3.2/share/psi4/basis/aug-cc-pvtz.gbs 
    atoms 2-3  entry H          line    36 file /apps/gb/PSI4/1.3.2/share/psi4/basis/aug-cc-pvtz.gbs 


         ---------------------------------------------------------
                                   SCF
               by Justin Turney, Rob Parrish, Andy Simmonett
                          and Daniel G. A. Smith
                              UHF Reference
                       12 Threads,   3814 MiB Core
         ---------------------------------------------------------

  ==> Geometry <==

    Molecular point group: c2v
    Full point group: C2v

    Geometry (in Angstrom), charge = 0, multiplicity = 3:

       Center              X                  Y                   Z               Mass       
    ------------   -----------------  -----------------  -----------------  -----------------
         O           -0.000000000000     0.000000000000     1.259811948868    15.994914619570
         H            0.000000000000    -0.760493697200     1.848418848268     1.007825032230
         H           -0.000000000000     0.760493697200     1.848418848268     1.007825032230
         O           -0.000000000000     0.000000000000    -1.492746332032    15.994914619570

  Running in c2v symmetry.

  Rotational constants: A =     14.46073  B =      0.24822  C =      0.24403 [cm^-1]
  Rotational constants: A = 433521.68342  B =   7441.44930  C =   7315.87153 [MHz]
  Nuclear repulsion =   23.927072963747275

  Charge       = 0
  Multiplicity = 3
  Electrons    = 18
  Nalpha       = 10
  Nbeta        = 8

  ==> Algorithm <==

  SCF Algorithm Type is PK.
  DIIS enabled.
  MOM disabled.
  Fractional occupation disabled.
  Guess Type is SAD.
  Energy threshold   = 1.00e-10
  Density threshold  = 1.00e-08
  Integral threshold = 0.00e+00

  ==> Primary Basis <==

  Basis Set: AUG-CC-PVTZ
    Blend: AUG-CC-PVTZ
    Number of shells: 46
    Number of basis function: 138
    Number of Cartesian functions: 160
    Spherical Harmonics?: true
    Max angular momentum: 3

  ==> Pre-Iterations <==

   -------------------------------------------------------
    Irrep   Nso     Nmo     Nalpha   Nbeta   Ndocc  Nsocc
   -------------------------------------------------------
     A1        54      54       0       0       0       0
     A2        17      17       0       0       0       0
     B1        29      29       0       0       0       0
     B2        38      38       0       0       0       0
   -------------------------------------------------------
    Total     138     138      10       8       8       2
   -------------------------------------------------------

  ==> Integral Setup <==

  Using in-core PK algorithm.
   Calculation information:
      Number of atoms:                   4
      Number of AO shells:              46
      Number of primitives:             82
      Number of atomic orbitals:       160
      Number of basis functions:       138

      Integral cutoff                 1.00e-12
      Number of threads:                12

  Performing in-core PK
  Using 91996872 doubles for integral storage.
  We computed 911627 shell quartets total.
  Whereas there are 584821 unique shell quartets.
    55.88 percent of shell quartets recomputed by reordering.

  ==> DiskJK: Disk-Based J/K Matrices <==

    J tasked:                  Yes
    K tasked:                  Yes
    wK tasked:                  No
    Memory [MiB]:             2861
    Schwarz Cutoff:          1E-12

    OpenMP threads:             12

  Minimum eigenvalue in the overlap matrix is 3.2125413908E-04.
  Using Symmetric Orthogonalization.

  SCF Guess: Superposition of Atomic Densities via on-the-fly atomic UHF.

  ==> Iterations <==

                        Total Energy        Delta E     RMS |[F,P]|

   @UHF iter SAD:  -149.38192253763793   -1.49382e+02   0.00000e+00 
   @UHF iter   1:  -150.76973929375885   -1.38782e+00   6.68762e-03 DIIS
   @UHF iter   2:  -150.84069067337265   -7.09514e-02   4.24564e-03 DIIS
   @UHF iter   3:  -150.87188290031605   -3.11922e-02   5.61754e-04 DIIS
   @UHF iter   4:  -150.87328202615799   -1.39913e-03   1.70702e-04 DIIS
   @UHF iter   5:  -150.87341648473921   -1.34459e-04   6.96896e-05 DIIS
   @UHF iter   6:  -150.87344946423383   -3.29795e-05   2.09018e-05 DIIS
   @UHF iter   7:  -150.87345257658552   -3.11235e-06   5.38962e-06 DIIS
   @UHF iter   8:  -150.87345280348723   -2.26902e-07   1.52069e-06 DIIS
   @UHF iter   9:  -150.87345282120046   -1.77132e-08   3.92785e-07 DIIS
   @UHF iter  10:  -150.87345282246901   -1.26855e-09   1.90617e-07 DIIS
   @UHF iter  11:  -150.87345282287072   -4.01712e-10   7.18713e-08 DIIS
   @UHF iter  12:  -150.87345282292790   -5.71845e-11   1.53265e-08 DIIS
   @UHF iter  13:  -150.87345282292992   -2.01794e-12   4.52439e-09 DIIS
  Energy and wave function converged.


  ==> Post-Iterations <==

   @Spin Contamination Metric:   9.544980666E-03
   @S^2 Expected:                2.000000000E+00
   @S^2 Observed:                2.009544981E+00
   @S   Expected:                1.000000000E+00
   @S   Observed:                1.000000000E+00

    Orbital Energies [Eh]
    ---------------------

    Alpha Occupied:                                                       

       1A1   -20.684088     2A1   -20.571218     3A1    -1.393591  
       4A1    -1.355263     1B2    -0.719014     5A1    -0.688110  
       1B1    -0.684856     6A1    -0.586065     2B2    -0.585866  
       2B1    -0.514039  

    Alpha Virtual:                                                        

       7A1     0.029567     3B2     0.047661     8A1     0.118310  
       3B1     0.154206     9A1     0.159465     4B2     0.180231  
       5B2     0.187235     4B1     0.192824    10A1     0.198115  
       1A2     0.263625     6B2     0.264440    11A1     0.265404  
      12A1     0.314441     5B1     0.327199    13A1     0.376030  
       7B2     0.380347    14A1     0.449820     8B2     0.464275  
       9B2     0.600166     6B1     0.644060    15A1     0.647694  
       2A2     0.658234    16A1     0.667012    17A1     0.699200  
       3A2     0.721670    10B2     0.724226     7B1     0.768885  
      18A1     0.792887    19A1     0.820145     8B1     0.837603  
      20A1     0.860400     9B1     0.901362    11B2     0.918587  
       4A2     0.924947    12B2     0.946658    13B2     0.981284  
      21A1     0.991528    10B1     1.015570    22A1     1.046834  
      14B2     1.051526    11B1     1.123764     5A2     1.176700  
      23A1     1.191909    15B2     1.200956    16B2     1.330277  
      24A1     1.335285    25A1     1.452397     6A2     1.507280  
      12B1     1.595267    26A1     1.669413    27A1     1.812305  
      17B2     1.821112    18B2     1.976693    28A1     2.041056  
      13B1     2.048408    19B2     2.054440     7A2     2.058180  
      14B1     2.059267    29A1     2.079079    30A1     2.115102  
       8A2     2.119402    20B2     2.138097    31A1     2.141954  
      15B1     2.147879    32A1     2.253123    21B2     2.273058  
      16B1     2.302770     9A2     2.311659    17B1     2.437947  
      33A1     2.475435    22B2     2.481973    34A1     2.491369  
      35A1     2.698193    18B1     2.717029    23B2     2.722170  
      36A1     2.844200    24B2     2.862126    10A2     2.879908  
      25B2     3.692677    37A1     3.753994    11A2     4.012576  
      19B1     4.079419    20B1     4.100076    38A1     4.143354  
      26B2     4.184620    27B2     4.281840    21B1     4.290906  
      39A1     4.356021    12A2     4.382204    40A1     4.430014  
      22B1     4.453445    28B2     4.514393    41A1     4.791672  
      29B2     4.838374    30B2     5.139820    13A2     5.144152  
      31B2     5.249084    42A1     5.339673    23B1     5.515035  
      43A1     5.687537    44A1     6.197996    24B1     6.390570  
      14A2     6.410999    45A1     6.411137    32B2     6.424300  
      25B1     6.436084    33B2     6.491105    46A1     6.541451  
      34B2     6.581730    26B1     6.718507    27B1     6.903879  
      47A1     6.907729    15A2     6.925052    48A1     6.943543  
      35B2     6.987036    49A1     7.046305    28B1     7.134913  
      29B1     7.278822    16A2     7.305237    36B2     7.310365  
      17A2     7.352529    50A1     7.436720    51A1     7.542883  
      52A1     7.910640    37B2     7.914046    38B2     8.803801  
      53A1     8.882768    54A1    15.771789  

    Beta Occupied:                                                        

       1A1   -20.605207     2A1   -20.570721     3A1    -1.354540  
       4A1    -1.050760     1B2    -0.718660     5A1    -0.587995  
       1B1    -0.513330     2B2    -0.495267  

    Beta Virtual:                                                         

       6A1     0.029407     3B2     0.047743     2B1     0.086799  
       7A1     0.092060     8A1     0.141271     9A1     0.166989  
       3B1     0.170711     4B2     0.180831     5B2     0.190868  
      10A1     0.225623     4B1     0.253497     1A2     0.263627  
       6B2     0.264877    11A1     0.288718    12A1     0.316876  
       5B1     0.328476     7B2     0.380518    13A1     0.386542  
      14A1     0.450888     8B2     0.464482     9B2     0.601820  
      15A1     0.660266     6B1     0.667847     2A2     0.672600  
      16A1     0.674071    17A1     0.716478     3A2     0.722162  
      10B2     0.736392     7B1     0.780404    18A1     0.807131  
       8B1     0.846904    19A1     0.851356     4A2     0.925361  
      20A1     0.928083    11B2     0.936482    12B2     0.953440  
      13B2     0.985170     9B1     0.987637    21A1     0.998594  
      14B2     1.052647    22A1     1.053374    10B1     1.061404  
      11B1     1.140664     5A2     1.176902    23A1     1.193368  
      15B2     1.203651    16B2     1.332725    24A1     1.391904  
      25A1     1.490527     6A2     1.507720    12B1     1.597260  
      26A1     1.700202    27A1     1.817609    17B2     1.821439  
      18B2     1.978175    28A1     2.070489    13B1     2.071147  
      19B2     2.071841     7A2     2.082865    29A1     2.099155  
      14B1     2.101379    30A1     2.155744    20B2     2.185085  
       8A2     2.202553    31A1     2.209296    15B1     2.260385  
      32A1     2.311472     9A2     2.311789    16B1     2.317936  
      21B2     2.323610    17B1     2.446543    33A1     2.483004  
      22B2     2.484816    34A1     2.524784    35A1     2.705169  
      18B1     2.718811    23B2     2.723086    36A1     2.856800  
      24B2     2.862263    10A2     2.879945    25B2     3.693611  
      37A1     3.754128    11A2     4.012607    19B1     4.081756  
      38A1     4.175425    26B2     4.219671    20B1     4.260061  
      27B2     4.293207    21B1     4.295784    12A2     4.382317  
      39A1     4.426321    22B1     4.458801    40A1     4.474543  
      28B2     4.514485    41A1     4.803073    29B2     4.838540  
      30B2     5.140014    13A2     5.144233    31B2     5.249548  
      42A1     5.340312    23B1     5.515154    43A1     5.692437  
      44A1     6.199567    24B1     6.486109    14A2     6.487826  
      32B2     6.488180    45A1     6.494583    25B1     6.500150  
      33B2     6.526014    34B2     6.610637    46A1     6.613000  
      26B1     6.726179    47A1     6.961288    15A2     7.038600  
      48A1     7.042640    27B1     7.086392    35B2     7.098878  
      28B1     7.135349    49A1     7.173590    29B1     7.282962  
      16A2     7.305523    36B2     7.310568    17A2     7.352972  
      50A1     7.439533    51A1     7.543994    52A1     7.911250  
      37B2     7.914419    38B2     8.804196    53A1     8.961944  
      54A1    15.772132  

    Final Occupation by Irrep:
             A1    A2    B1    B2 
    DOCC [     5,    0,    1,    2 ]
    SOCC [     1,    0,    1,    0 ]

  @UHF Final Energy:  -150.87345282292992

   => Energetics <=

    Nuclear Repulsion Energy =             23.9270729637472748
    One-Electron Energy =                -255.9224612480568339
    Two-Electron Energy =                  81.1219354613796355
    Total Energy =                       -150.8734528229299485

  UHF NO Occupations:
  HONO-2 :    5 A1 1.9970482
  HONO-1 :    2 B1 1.0000000
  HONO-0 :    6 A1 1.0000000
  LUNO+0 :    7 A1 0.0029518
  LUNO+1 :    3 B2 0.0017985
  LUNO+2 :    8 A1 0.0000240
  LUNO+3 :    9 A1 0.0000024


Computation Completed


Properties will be evaluated at   0.000000,   0.000000,   0.000000 [a0]

Properties computed using the SCF density matrix

  Nuclear Dipole Moment: [e a0]
     X:    -0.0000      Y:     0.0000      Z:     3.4646

  Electronic Dipole Moment: [e a0]
     X:     0.0000      Y:     0.0000      Z:    -2.6276

  Dipole Moment: [e a0]
     X:    -0.0000      Y:     0.0000      Z:     0.8370     Total:     0.8370

  Dipole Moment: [D]
     X:    -0.0000      Y:     0.0000      Z:     2.1274     Total:     2.1274


*** tstop() called on c2-1.compute.lan at Mon Mar  8 17:26:14 2021
Module time:
	user time   =      44.82 seconds =       0.75 minutes
	system time =       1.88 seconds =       0.03 minutes
	total time  =          5 seconds =       0.08 minutes
Total time:
	user time   =      44.82 seconds =       0.75 minutes
	system time =       1.88 seconds =       0.03 minutes
	total time  =          5 seconds =       0.08 minutes
 MINTS: Wrapper to libmints.
   by Justin Turney

   Calculation information:
      Number of threads:                12
      Number of atoms:                   4
      Number of AO shells:              46
      Number of SO shells:              37
      Number of primitives:             82
      Number of atomic orbitals:       160
      Number of basis functions:       138

      Number of irreps:                  4
      Integral cutoff                 0.00e+00
      Number of functions per irrep: [  54   17   29   38 ]

 OEINTS: Overlap, kinetic, potential, dipole, and quadrupole integrals
         stored in file 35.

      Computing two-electron integrals...done
      Computed 11525191 non-zero two-electron integrals.
        Stored in file 33.


*** tstart() called on c2-1.compute.lan
*** at Mon Mar  8 17:26:16 2021


	Wfn Parameters:
	--------------------
	Wavefunction         = CCSD_T
	Number of irreps     = 4
	Number of MOs        = 138
	Number of active MOs = 136
	AO-Basis             = NONE
	Semicanonical        = false
	Reference            = UHF
	Print Level          = 1

	IRREP	# MOs	# FZDC	# DOCC	# SOCC	# VIRT	# FZVR
	-----	-----	------	------	------	------	------
	 A1	   54	    2	    3	    1	    48	    0
	 A2	   17	    0	    0	    0	    17	    0
	 B1	   29	    0	    1	    1	    27	    0
	 B2	   38	    0	    2	    0	    36	    0
	Transforming integrals...
	IWL integrals will be deleted.
	(OO|OO)...
	Presorting SO-basis two-electron integrals.
	Sorting File: SO Ints (nn|nn) nbuckets = 1
	Transforming the one-electron integrals and constructing Fock matrices
	Starting AA/AB first half-transformation.
	Sorting AA/AB half-transformed integrals.
	Starting BB first half-transformation.
	Sorting BB half-transformed integrals.
	First half integral transformation complete.
	Starting AA second half-transformation.
	Starting AB second half-transformation.
	Starting BB second half-transformation.
	Two-electron integral transformation complete.
	(OO|OV)...
	Starting AA second half-transformation.
	Starting AB second half-transformation.
	Starting BB second half-transformation.
	Two-electron integral transformation complete.
	(OO|VV)...
	Starting AA second half-transformation.
	Starting AB second half-transformation.
	Starting BB second half-transformation.
	Two-electron integral transformation complete.
	(OV|OO)...
	Starting AA/AB first half-transformation.
	Sorting AA/AB half-transformed integrals.
	Starting BB first half-transformation.
	Sorting BB half-transformed integrals.
	First half integral transformation complete.
	Starting AA second half-transformation.
	Starting AB second half-transformation.
	Starting BB second half-transformation.
	Two-electron integral transformation complete.
	(OV|OV)...
	Starting AA second half-transformation.
	Starting AB second half-transformation.
	Starting BB second half-transformation.
	Two-electron integral transformation complete.
	(OV|VV)...
	Starting AA second half-transformation.
	Starting AB second half-transformation.
	Starting BB second half-transformation.
	Two-electron integral transformation complete.
	(VV|OO)...
	Starting AA/AB first half-transformation.
	Sorting AA/AB half-transformed integrals.
	Starting BB first half-transformation.
	Sorting BB half-transformed integrals.
	First half integral transformation complete.
	Starting AA second half-transformation.
	Starting AB second half-transformation.
	Starting BB second half-transformation.
	Two-electron integral transformation complete.
	(VV|OV)...
	Starting AA second half-transformation.
	Starting AB second half-transformation.
	Starting BB second half-transformation.
	Two-electron integral transformation complete.
	(VV|VV)...
	Starting AA second half-transformation.
	Starting AB second half-transformation.
	Starting BB second half-transformation.
	Two-electron integral transformation complete.
	Frozen core energy     =   -126.41254249986522

	Size of irrep 0 of <AB|CD> integrals:      5.040 (MW) /     40.320 (MB)
	Size of irrep 1 of <AB|CD> integrals:      3.197 (MW) /     25.576 (MB)
	Size of irrep 2 of <AB|CD> integrals:      3.640 (MW) /     29.124 (MB)
	Size of irrep 3 of <AB|CD> integrals:      4.783 (MW) /     38.264 (MB)
	Total:                                    16.660 (MW) /    133.283 (MB)

	Size of irrep 0 of <ab|cd> integrals:      5.382 (MW) /     43.059 (MB)
	Size of irrep 1 of <ab|cd> integrals:      3.389 (MW) /     27.114 (MB)
	Size of irrep 2 of <ab|cd> integrals:      3.936 (MW) /     31.490 (MB)
	Size of irrep 3 of <ab|cd> integrals:      5.018 (MW) /     40.141 (MB)
	Total:                                    17.726 (MW) /    141.804 (MB)

	Size of irrep 0 of <Ab|Cd> integrals:     22.024 (MW) /    176.194 (MB)
	Size of irrep 1 of <Ab|Cd> integrals:     13.170 (MW) /    105.357 (MB)
	Size of irrep 2 of <Ab|Cd> integrals:     15.140 (MW) /    121.119 (MB)
	Size of irrep 3 of <Ab|Cd> integrals:     19.598 (MW) /    156.787 (MB)
	Total:                                    69.932 (MW) /    559.457 (MB)

	Size of irrep 0 of <IA|BC> integrals:      1.469 (MW) /     11.748 (MB)
	Size of irrep 1 of <IA|BC> integrals:      0.694 (MW) /      5.550 (MB)
	Size of irrep 2 of <IA|BC> integrals:      0.908 (MW) /      7.266 (MB)
	Size of irrep 3 of <IA|BC> integrals:      1.198 (MW) /      9.588 (MB)
	Total:                                     4.269 (MW) /     34.152 (MB)

	Size of irrep 0 of <ia|bc> integrals:      1.178 (MW) /      9.426 (MB)
	Size of irrep 1 of <ia|bc> integrals:      0.527 (MW) /      4.212 (MB)
	Size of irrep 2 of <ia|bc> integrals:      0.663 (MW) /      5.301 (MB)
	Size of irrep 3 of <ia|bc> integrals:      0.999 (MW) /      7.992 (MB)
	Total:                                     3.366 (MW) /     26.931 (MB)

	Size of irrep 0 of <Ia|Bc> integrals:      1.521 (MW) /     12.164 (MB)
	Size of irrep 1 of <Ia|Bc> integrals:      0.711 (MW) /      5.690 (MB)
	Size of irrep 2 of <Ia|Bc> integrals:      0.949 (MW) /      7.595 (MB)
	Size of irrep 3 of <Ia|Bc> integrals:      1.222 (MW) /      9.775 (MB)
	Total:                                     4.403 (MW) /     35.225 (MB)

	Size of irrep 0 of <iA|bC> integrals:      1.140 (MW) /      9.123 (MB)
	Size of irrep 1 of <iA|bC> integrals:      0.512 (MW) /      4.094 (MB)
	Size of irrep 2 of <iA|bC> integrals:      0.634 (MW) /      5.074 (MB)
	Size of irrep 3 of <iA|bC> integrals:      0.978 (MW) /      7.827 (MB)
	Total:                                     3.265 (MW) /     26.118 (MB)

	Size of irrep 0 of tIjAb amplitudes:       0.084 (MW) /      0.676 (MB)
	Size of irrep 1 of tIjAb amplitudes:       0.022 (MW) /      0.174 (MB)
	Size of irrep 2 of tIjAb amplitudes:       0.039 (MW) /      0.311 (MB)
	Size of irrep 3 of tIjAb amplitudes:       0.062 (MW) /      0.496 (MB)
	Total:                                     0.207 (MW) /      1.657 (MB)

	Nuclear Rep. energy          =     23.92707296374727
	SCF energy                   =   -150.87345282292992
	One-electron energy          =    -85.52861104218705
	Two-electron (AA) energy     =     10.38464850752432
	Two-electron (BB) energy     =      5.47662050459775
	Two-electron (AB) energy     =     21.27935874325138
	Two-electron energy          =     37.14062775537346
	Reference energy             =   -150.87345282293154

*** tstop() called on c2-1.compute.lan at Mon Mar  8 17:26:36 2021
Module time:
	user time   =      87.01 seconds =       1.45 minutes
	system time =      12.45 seconds =       0.21 minutes
	total time  =         20 seconds =       0.33 minutes
Total time:
	user time   =     137.65 seconds =       2.29 minutes
	system time =      14.86 seconds =       0.25 minutes
	total time  =         27 seconds =       0.45 minutes
            **************************
            *                        *
            *        CCENERGY        *
            *                        *
            **************************

    Nuclear Rep. energy (wfn)     =   23.927072963747275
    SCF energy          (wfn)     = -150.873452822929920
    Reference energy    (file100) = -150.873452822931540

    Input parameters:
    -----------------
    Wave function   =     CCSD_T
    Reference wfn   =     UHF
    Brueckner       =     No
    Memory (Mbytes) =     4000.0
    Maxiter         =     50
    R_Convergence   =     1.0e-10
    E_Convergence   =     1.0e-10
    Restart         =     Yes
    DIIS            =     Yes
    AO Basis        =     NONE
    ABCD            =     NEW
    Cache Level     =     2
    Cache Type      =     LRU
    Print Level     =     1
    Num. of threads =     12
    # Amps to Print =     10
    Print MP2 Amps? =     No
    Analyze T2 Amps =     No
    Print Pair Ener =     No
    Local CC        =     No
    SCS-MP2         =     False
    SCSN-MP2        =     False
    SCS-CCSD        =     False

MP2 correlation energy -0.4163309848369260
                Solving CC Amplitude Equations
                ------------------------------
  Iter             Energy              RMS        T1Diag      D1Diag    New D1Diag    D2Diag
  ----     ---------------------    ---------   ----------  ----------  ----------   --------
     0        -0.416330984836926    0.000e+00    0.000000    0.000000    0.000000    0.000000
     1        -0.427107369917267    5.703e-02    0.010598    0.000000    0.000000    0.000000
     2        -0.435207944333327    1.705e-02    0.011096    0.000000    0.000000    0.000000
     3        -0.437362442380388    8.805e-03    0.013028    0.000000    0.000000    0.000000
     4        -0.437235684382803    2.696e-03    0.013443    0.000000    0.000000    0.000000
     5        -0.437226224051569    1.406e-03    0.013641    0.000000    0.000000    0.000000
     6        -0.437255542469298    5.318e-04    0.013669    0.000000    0.000000    0.000000
     7        -0.437258529815555    2.161e-04    0.013664    0.000000    0.000000    0.000000
     8        -0.437259451876438    6.687e-05    0.013659    0.000000    0.000000    0.000000
     9        -0.437260144243629    2.403e-05    0.013658    0.000000    0.000000    0.000000
    10        -0.437259235684160    9.243e-06    0.013658    0.000000    0.000000    0.000000
    11        -0.437259401486590    4.054e-06    0.013658    0.000000    0.000000    0.000000
    12        -0.437259361772559    1.479e-06    0.013658    0.000000    0.000000    0.000000
    13        -0.437259370168539    7.490e-07    0.013658    0.000000    0.000000    0.000000
    14        -0.437259393442429    3.150e-07    0.013658    0.000000    0.000000    0.000000
    15        -0.437259395049114    1.140e-07    0.013658    0.000000    0.000000    0.000000
    16        -0.437259395680552    5.213e-08    0.013658    0.000000    0.000000    0.000000
    17        -0.437259396236240    1.987e-08    0.013658    0.000000    0.000000    0.000000
    18        -0.437259396076327    1.064e-08    0.013658    0.000000    0.000000    0.000000
    19        -0.437259395843414    4.118e-09    0.013658    0.000000    0.000000    0.000000
    20        -0.437259395830370    2.207e-09    0.013658    0.000000    0.000000    0.000000
    21        -0.437259395806899    8.361e-10    0.013658    0.000000    0.000000    0.000000
    22        -0.437259395805772    3.334e-10    0.013658    0.000000    0.000000    0.000000
    23        -0.437259395805155    1.742e-10    0.013658    0.000000    0.000000    0.000000
    24        -0.437259395804969    7.153e-11    0.013658    0.000000    0.000000    0.000000

    Iterations converged.


    Largest TIA Amplitudes:
              5  65        -0.0133826710
              5  67        -0.0111590826
              7  94         0.0105078960
              5  66        -0.0096583997
              4  65        -0.0074814096
              3   1         0.0074755473
              2   3         0.0072137455
              4  66         0.0071773416
              3   5        -0.0055438880
              3   6         0.0054627769

    Largest Tia Amplitudes:
              3  67        -0.0147846052
              2   2         0.0137007730
              3  69        -0.0107658918
              5  96         0.0080105557
              3  66        -0.0078867197
              2   1        -0.0069948606
              2   7         0.0057189973
              2   6        -0.0055064332
              1  25        -0.0054043616
              4 109         0.0053903257

    Largest TIJAB Amplitudes:
      7   4 100  71         0.0142066506
      7   4  55  23        -0.0135960934
      7   2 100  12        -0.0119620087
      4   2  71  12         0.0108277140
      6   5  50   9        -0.0086127503
      7   4  49  23         0.0082582809
      6   5  97  72        -0.0081253993
      7   4  94  71         0.0079025224
      7   4  55   8        -0.0076397735
      7   4 100  82        -0.0073865522

    Largest Tijab Amplitudes:
      5   1  66  56         0.0086652361
      5   1  66  50        -0.0085511916
      5   1  68  56         0.0081653168
      4   3  99  67        -0.0076403263
      5   1  68  50        -0.0074513344
      4   3  99  73        -0.0072592430
      4   2  99   2         0.0072152814
      4   2  99  12         0.0069268665
      4   2 100   9        -0.0067573950
      4   3  51  10        -0.0065007616

    Largest TIjAb Amplitudes:
      6   4  97  99        -0.0218009686
      7   5 100 103        -0.0214855478
      7   5 100 102         0.0191549143
      7   1  55  66        -0.0180288165
      7   5 100  96        -0.0171237513
      7   1  55  68        -0.0168394163
      4   1  23  66        -0.0166598712
      5   3  72  73        -0.0162102976
      4   1  23  68        -0.0155155988
      7   5  55  56        -0.0145431798

    SCF energy       (wfn)                    = -150.873452822929920
    Reference energy (file100)                = -150.873452822931540

    Opposite-spin MP2 correlation energy      =   -0.314463702909025
    Same-spin MP2 correlation energy          =   -0.101867281927901
    MP2 correlation energy                    =   -0.416330984836926
      * MP2 total energy                      = -151.289783807768458

    Opposite-spin CCSD correlation energy     =   -0.342123226168254
    Same-spin CCSD correlation energy         =   -0.095136169636715
    CCSD correlation energy                   =   -0.437259395804969
      * CCSD total energy                     = -151.310712218736512

            **************************
            *                        *
            *        CCTRIPLES       *
            *                        *
            **************************


    Wave function   =    CCSD_T
    Reference wfn   =      UHF

    Nuclear Rep. energy (wfn)                =   23.927072963747275
    SCF energy          (wfn)                = -150.873452822929920
    Reference energy    (file100)            = -150.873452822931540
    CCSD energy         (file100)            =   -0.437259395804969
    Total CCSD energy   (file100)            = -151.310712218736512

    Number of ijk index combinations:
    Spin Case AAA:                                  56
    Spin Case BBB:                                  20
    Spin Case AAB:                                 168
    Spin Case ABB:                                 120
    AAA (T) energy                             =   -0.000396121923224
    BBB (T) energy                             =   -0.000202630611018
    AAB (T) energy                             =   -0.006713946690517
    ABB (T) energy                             =   -0.004989630785177
    (T) energy                                   =   -0.012302330009937
      * CCSD(T) total energy                     = -151.323014548746443

Stephenergy -151.32301454874644
    Psi4 stopped on: Monday, 08 March 2021 05:27PM
    Psi4 wall time for execution: 0:01:16.93

*** Psi4 exiting successfully. Buy a developer a beer!
