 --invoking executable--
/apps/eb/cfour/2.1-iompi-2018a-serial/bin/xjoda


   *************************************************************************
         <<<     CCCCCC     CCCCCC   |||     CCCCCC     CCCCCC   >>>
       <<<      CCC        CCC       |||    CCC        CCC         >>>
      <<<      CCC        CCC        |||   CCC        CCC            >>>
    <<<        CCC        CCC        |||   CCC        CCC              >>>
      <<<      CCC        CCC        |||   CCC        CCC            >>>
       <<<      CCC        CCC       |||    CCC        CCC         >>>
         <<<     CCCCCC     CCCCCC   |||     CCCCCC     CCCCCC   >>>
   *************************************************************************

     ****************************************************************
     * CFOUR Coupled-Cluster techniques for Computational Chemistry *
     ****************************************************************
 

   Department of Chemistry                Institut fuer Physikalische Chemie
   University of Florida                  Universitaet Mainz
   Gainesville, FL 32611, USA             D-55099 Mainz, Germany

   Department of Chemistry                Fakultaet fuer Chemie und Biowiss.
   Johns Hopkins University               Karlsruher Institut fuer Technologie
   Baltimore, MD 21218, USA               D-76131 Karlsruhe, Germany

   Department of Chemistry                Department of Physical Chemistry
   Southern Methodist University          Eotvos Lorand University
   Dallas, TX 75275, USA                  H-1053 Budapest, Hungary

 
                       Version 2.1
 
                     c5-8.compute.lan                                  
                     Tue Feb  2 11:29:10 EST 2021                      
                     integer*8 version is running
 
********************************************************************************
*                          Input from ZMAT file                                *
********************************************************************************
CFOUR Optimization JOB                                                          
O   -0.996980965704    0.248969395023    0.000000000000                         
H   -0.474637205958   -0.510928049503    0.000000000000                         
O    0.996980965704   -0.248969395023    0.000000000000                         
H    0.474637205958    0.510928049503    0.000000000000                         
                                                                                
*CFOUR(CALC=CCSDT                                                               
       BASIS=AUG-PVTZ                                                           
       SCF_CONV=12                                                              
       CC_CONV=12                                                               
       SCF_MAXCYC=200                                                           
       CC_MAXCYC=150                                                            
       CC_PROGRAM=MRCC                                                          
       DERIV_LEVEL=1                                                            
       FROZEN_CORE=ON                                                           
       LINEQ_CONV=12                                                            
       OPT_MAXCYC=400                                                           
       REFERENCE=UHF                                                            
       MULTIPLICITY=3                                                           
       COORDINATES=CARTESIAN                                                    
       MEMORY=40                                                                
       MEM_UNIT=GB                                                              
       UNITS=ANGSTROM)                                                          
********************************************************************************
    -------------------------------------------------------------------
                    CFOUR Control Parameters 
    -------------------------------------------------------------------
        External           Internal           Value            Units
          Name               Name
    -------------------------------------------------------------------
       ABCDTYPE             IABCDT         STANDARD    [  0]    ***   
       ANHARMONIC           IANHAR         OFF         [  0]    ***   
       ANH_ALGORIT          IANALG         STANDARD    [  0]    ***   
       ANH_DERIVAT          IANDER         SECOND      [  1]    ***   
       ANH_MODE             ANHMOD         VIBRATION   [  0]    ***   
       ANH_STEPSIZ          ICUBST             50000          x 10-6  
       ANH_SYMMETR          IANHSM         ABELIAN     [  0]    ***   
       AO_LADDERS           IAOLAD         SINGLEPASS  [  1]    ***   
       AV_SCF               IAVSCF         OFF         [  0]    ***   
       BASIS                IBASIS         AUG-PVTZ    [ 34]    ***   
       BOTHVECTORS          BOTHVC         OFF         [  0]    ***   
       BOX_POTENT           IPIAB          OFF         [  0]    ***   
       BREIT                IBREIT         OFF         [  0]    ***   
       BRUCK_CONV           IBRTOL          10D-  4             ***   
       BRUECKNER            IBRKNR         OFF         [  0]    ***   
       BUFFERSIZE           IBUFFS              4096            ***   
       CACHE_RECS           ICHREC             10               ***   
       CALCLEVEL            ICLLVL         CCSDT       [ 18]    ***   
       CCORBOPT             ICCORB         OFF         [  0]  x 0.01  
       CC_CONV              ICCCNV          10D- 12             ***   
       CC_EXPORDER          ICCEOR              5               ***   
       CC_EXTRAPOL          ICCEXT         DIIS        [  1]    ***   
       CC_GUESS             ICCGES         MP2         [  0]    ***   
       CC_MAXCYC            ICCCYC            150              cycles 
       CC_PROGRAM           ICCPRO         MRCC        [  2]    ***   
       CHARGE               ICHRGE              0               ***   
       CHOLESKY             ICHOLE         OFF         [  0]    ***   
       CIS_CONV             ICISTL              5               ***   
       COMM_SIZE            IPSIZE            ***               ***   
       CONSTANT             ICONST         OLD         [  1]    ***   
       CONTINUUM            ICONTU         NONE        [  0]    ***   
       CONTRACTION          ICNTYP         GENERAL     [  1]    ***   
       COORDINATES          ICOORD         CARTESIAN   [  1]    ***   
       CPHF_CONVER          ICPHFT          10D- 16             ***   
       CPHF_MAXCYC          ICPHFC             64              cycles 
       CUBIC                ICUBIC         OFF         [  0]    ***   
       CURVILINEAR          ICURVY         OFF         [  0]    ***   
       DBOC                 IDBOC          OFF         [  0]    ***   
       DCT                  IDCT           OFF         [  0]    ***   
       DERIV_LEV            IDRLVL         FIRST       [  1]    ***   
       DEVMEM_SIZE          IDVMEM         *********           MByte  
       DIAG_MRCC            IEOMST          10D-  0             ***   
       DIFF_TYPE            IDIFTY         RELAXED     [  0]    ***   
       DIRECT               IDIRCT         OFF         [  0]    ***   
       DROPMO               IDRPMO      NONE         
       ECP                  IECP           OFF         [  0]    ***   
       EIGENVECTOR          IVEC                1               ***   
       EL_ANHARM            IELANH         OFF         [  0]    ***   
       EOMFOLLOW            IEOMSR         ENERGY      [  0]    ***   
       EOMIP                IEOMIP         OFF         [  0]    ***   
       EOMLEVEL             HBARFM         SAME        [  0]    ***   
       EOM_MRCC             IMRCCE         NEW         [  1]    ***   
       EOM_NONIT            EOMNON         OFF         [  0]    ***   
       EOM_NSING            IEOMSI          10D-  0             ***   
       EOM_NSTATES          IMRCCD         DAVIDSON    [  0]    ***   
       EOM_NTRIP            IEOMTR          10D-  0             ***   
       EOM_ORDER            IEXORD         ENERGY      [  0]    ***   
       EOM_PROPSTA          IEOMST              0               ***   
       ESTATE_CONV          IEXTOL          10D-  5             ***   
       ESTATE_DIAG          IEXDIG         ITERATIVE   [  0]    ***   
       ESTATE_LOCK          IESLOC         ON          [  1]    ***   
       ESTATE_MAXC          IEXMXC             40               ***   
       ESTATE_PROP          IEXPRP         OFF         [  0]    ***   
       EVAL_HESS            IRECAL              0            # of cyc.
       EXCITATION           IEXCIT              0               ***   
       EXCITE               IEXCIT         NONE        [  0]    ***   
       EXTERN_POT           IEXPOT         OFF         [  0]    ***   
       FCGRADNEW            IFCGNW         OFF         [  0]    ***   
       FC_FIELD             IFINFC              0             x 10-6  
       FD_CALTYPE           IFDCAL         GRADONLY    [  0]    ***   
       FD_PROJECT           IFDPRJ         OFF         [  1]    ***   
       FD_STEPSIZE          IDISFD              0            10-4 bohr
       FD_USEGROUP          IFDGRP         FULL        [  0]    ***   
       FILE_RECSIZ          IFLREC              4096           words  
       FINITE_PERT          IFIPER              0             x 10-6  
       FIXGEOM              IFIXGM         OFF         [  0]    ***   
       FOCK                 IFOCK          AO          [  1]    ***   
       FREQ_ALGORI          IVIALG         STANDARD    [  0]    ***   
       FROZEN_CORE          IFROCO         ON          [  1]    ***   
       GAMMA_ABCD           IGABCD         STORE       [  0]    ***   
       GAMMA_ABCI           IGABCI         STORE       [  0]    ***   
       GENBAS_1             IGNBS1              0               ***   
       GENBAS_2             IGNBS2              0               ***   
       GENBAS_3             IGNBS3              0               ***   
       GENBAS_4             IGNBS4              0               ***   
       GEO_CONV             ICONTL              5              H/bohr 
       GEO_MAXCYC           IOPTCY            400               ***   
       GEO_MAXSTEP          IMXSTP            300            millibohr
       GEO_METHOD           INR            SINGLE_POINT[  5]    ***   
       GIAO                 IGIAO          OFF         [  1]    ***   
       GIMIC                IGIMIC         OFF         [  0]    ***   
       GRID                 IGRID          OFF         [  0]    ***   
       GRID_ALGO            IGALGO         SERIAL      [  0]    ***   
       GUESS                IGUESS         MOREAD      [  0]    ***   
       HBAR                 IHBAR          OFF         [  0]    ***   
       HESS_TYPE            IHESTP         SCF         [  0]    ***   
       HF2_FILE             IHF2Fl         USE         [  1]    ***   
       HFSTABILITY          ISTABL         OFF         [  0]    ***   
       INCORE               INCORE         OFF         [  0]    ***   
       INPUT_MRCC           IMRCC          ON          [  1]    ***   
       INTEGRALS            INTTYP         VMOL        [  1]    ***   
       JODA_PRINT           IJPRNT              0               ***   
       KEYWORD_OUT          IDMPKW         NO          [  0]    ***   
       LINDEP_TOL           ILINDP              8               ***   
       LINEQ_CONV           IZTACN          10D- 12           cycles  
       LINEQ_EXPOR          ILMAXD              5               ***   
       LINEQ_MAXCY          ILMAXC            100               ***   
       LINEQ_TYPE           ILTYPE         DIIS        [  1]    ***   
       LOCK_ORBOCC          ILOCOC         OFF         [  0]    ***   
       MEMORY_SIZE          IMEMSZ         *********           words  
       MEM_UNIT             IMEMU          GB          [  3]    ***   
       MRCC                 IMRCCC         OFF         [  0]    ***   
       MULTIPLICTY          IMULTP              3               ***   
       NACOUPLING           IVCOUP         OFF         [  0]    ***   
       NEGEVAL              IDIE           ABORT       [  0]    ***   
       NEWNORM              INEWNO         OFF         [  0]    ***   
       NON-HF               INONHF         OFF         [  0]    ***   
       NTOP_TAMP            ITOPT2             15               ***   
       NUC_MODEL            INUCMO         POINT       [  0]    ***   
       OCCUPATION           IOCCU   ESTIMATED BY SCF 
       OPEN-SHELL           IOPEN          SPIN-ORBITAL[  0]    ***   
       OPTVIB               IOPTVB         OFF         [  0]    ***   
       ORBITALS             IORBTP         STANDARD    [  0]    ***   
       PARALLEL             IPARAL         ON          [  1]    ***   
       PARA_INT             IPINTS         ON          [  1]    ***   
       PARA_PRINT           IPPRIN              0               ***   
       PERT_ORB             IPTORB         CANONICAL   [  1]    ***   
       POINTS               IGRDFD              0               ***   
       PRINT                IPRNT               0               ***   
       PROPS                IPROPS         OFF         [  0]    ***   
       PROP_INTEGR          IINTYP         INTERNAL    [  0]    ***   
       PSI                  IPSI           OFF         [  0]    ***   
       QC_ALG               IQCALG         FLM         [  0]    ***   
       QC_LINALG            IQCLIN         TRIDIAG     [  2]    ***   
       QC_MAXCYC            IQCMAX          10D-100           cycles  
       QC_MAXSCFCY          IQCMSC          10D- 15           cycles  
       QC_RTRUST            IQCRTR          10D-  0           x 10-3  
       QC_SKIPSCF           IQCSKI         OFF         [  0]    ***   
       QC_START             IQCSTA          10D-  1             ***   
       QRHFGUESS            IQGUES         OFF         [  0]    ***   
       QUARTIC              IQUART         OFF         [  0]    ***   
       RAMAN_INT            IRAMIN         OFF         [  0]    ***   
       RAMAN_ORB            IRAMRE         UNRELAXED   [  0]    ***   
       RDO                  IRDOFM         ON          [  1]    ***   
       REDUCE_REPR          REDREP         Ir          [  0]    ***   
       REFERENCE            IREFNC         UHF         [  1]    ***   
       RELATIVIST           IRELAT         OFF         [  0]    ***   
       RELAX_DENS           IRDENS         ON          [  1]    ***   
       RESET_FLAGS          IRESET         OFF         [  0]    ***   
       RESTART_CC           ICCRES         OFF         [  0]    ***   
       ROT_EVEC             ROTVEC              0               ***   
       SAVE_INTS            ISVINT         OFF         [  0]    ***   
       SCALE_ON             ISTCRT              0               ***   
       SCF_CONV             ISCFCV          10D- 12             ***   
       SCF_DAMPING          IDAMP               0             x 10-3  
       SCF_EXPORDE          IRPPOR              6               ***   
       SCF_EXPSTAR          IRPPLS              8               ***   
       SCF_EXTRAPO          IRPP           ON          [  1]    ***   
       SCF_MAXCYC           ISCFCY            200              cycles 
       SCF_NOSTOP           ISCFST         OFF         [  0]    ***   
       SCF_PRINT            ISCFPR              0               ***   
       SCF_PROG             ISCFPR         SCF         [  0]    ***   
       SD_FIELD             IFINSD              0             x 10-6  
       SOPERT               IPERSO         OFF         [  0]    ***   
       SPHERICAL            IDFGHI         ON          [  1]    ***   
       SPINORBIT            ISOCAL         OFF         [  0]    ***   
       SPINROTATIO          ISRCON         OFF         [  0]    ***   
       SPIN_FLIP            ISPFLP         OFF         [  0]    ***   
       SPIN_ORBIT           ISPORB         OFF         [  0]    ***   
       SPIN_SCAL            ISCSMP         OFF         [  0]    ***   
       STEEPSCALE           ISTPSC              1000          x 10-3  
       SUBGROUP             ISUBGP         DEFAULT     [  0]    ***   
       SUBGRPAXIS           ISBXYZ         X           [  0]    ***   
       SYMMETRY             ISYM           ON          [  0]    ***   
       SYM_CHECK            ISYMCK         OVERRIDE    [  1]    ***   
       T3_EXTRAPOL          IT3EXT         OFF         [  0]    ***   
       T4_EXTRAPOL          IT4EXP         OFF         [  0]    ***   
       TAMP_SUM             IEVERY              5               ***   
       TESTSUITE            ITESTS         OFF         [  0]    ***   
       THERMOCH             ITHERM         OFF         [  0]    ***   
       TOL_CHOLESK          ITOLCH          10D-  4             ***   
       TRANGRAD             IRESRM         OFF         [  0]    ***   
       TRANS_INV            ITRAIN         USE         [  0]    ***   
       TREAT_PERT           ITREAT         SIMULTANEOUS[  0]    ***   
       TRIP_ALGORI          ITRALG         NORMAL      [  0]    ***   
       UIJ_THRESHO          IUIJTH              1               ***   
       UNITS                IUNITS         ANGSTROM    [  0]    ***   
       UNOS                 IUNOS          OFF         [  0]    ***   
       UPDATE_HESS          IHUPDT         ON          [  1]    ***   
       VIBPHASE             ISETPH         STANDARD    [  0]    ***   
       VIBRATION            IVIB           NO          [  0]    ***   
       VIB_ALGORIT          IGEALG         STANDARD    [  0]    ***   
       VNATORB              IVNORB         OFF         [  0]    ***   
       VTRAN                IVTRAN         FULL/PARTIAL[  0]    ***   
       XFIELD               IXEFLD              0             x 10-6  
       XFORM_TOL            IXFTOL          10D- 11             ***   
       YFIELD               IYEFLD              0             x 10-6  
       ZFIELD               IZEFLD              0             x 10-6  
       ZSCALE_EXP           IZEXPS         OFF         [  0]    ***   
    -------------------------------------------------------------------
  @GETXYZ-I,     4 atoms read from ZMAT.
   Rotational constants (in cm-1): 
          0.4849701150             0.4956150350            22.5796419318
   Rotational constants (in MHz): 
      14539.0403212844         14858.1670372477        676920.7303839828
********************************************************************************
   The full molecular point group is C2h .
   The largest Abelian subgroup of the full molecular point group is C2h .
   The computational point group is C2h .
********************************************************************************


 ----------------------------------------------------------------
         Coordinates used in calculation (QCOMP) 
 ----------------------------------------------------------------
 Z-matrix   Atomic            Coordinates (in bohr)
  Symbol    Number           X              Y              Z
 ----------------------------------------------------------------
     O         8        -1.94172767     0.02419571     0.00000000
     H         1        -0.65061338    -1.14604171     0.00000000
     O         8         1.94172767    -0.02419571     0.00000000
     H         1         0.65061338     1.14604171     0.00000000
 ----------------------------------------------------------------
 
   Interatomic distance matrix (Angstroms) 
 
                 O             H             O             H    
                [ 1]        [ 2]        [ 3]        [ 4]
  O    [ 1]     0.00000
  H    [ 2]     0.92211     0.00000
  O    [ 3]     2.05520     1.49475     0.00000
  H    [ 4]     1.49475     1.39474     0.92211     0.00000
 rotcon2
   Rotational constants (in cm-1): 
         22.5796419318             0.4956150350             0.4849701150
   Rotational constants (in MHz): 
     676920.7303839811         14858.1670372477         14539.0403212844
  There are   2 frozen-core orbitals.
  There are   2 frozen-core orbitals.
  There are  138 basis functions.
 @CHECKOUT-I, Total execution time (CPU/WALL):        0.17/       0.23 seconds.
--executable xjoda finished with status     0 in        0.31 seconds (walltime).
 --invoking executable--
/apps/eb/cfour/2.1-iompi-2018a-serial/bin/xvmol
 SERIAL VERSION OF MOLECULE STARTED
********************************************************************************
                    INPUT FROM MOL FILE
********************************************************************************
INTGRL        1    0    1    0    0    0    0    0    0                         
         *** CFOUR Program System (Release V0.1) ***                            
CFOUR Optimization JOB                                                          
    2    2 Z  XY      0.10E-08              0    0                              
   9999.00      3.00                                                            
          8.00000000    1    4    1    1    1    1                              
O #1  -1.941727672677884   0.024195706432816   0.000000000000000                
   11    5                                                                      
   15330.0000000000       5.080000000000000E-004 -1.150000000000000E-004        
  0.000000000000000E+000  0.000000000000000E+000  0.000000000000000E+000        
   2299.00000000000       3.929000000000000E-003 -8.950000000000000E-004        
  0.000000000000000E+000  0.000000000000000E+000  0.000000000000000E+000        
   522.400000000000       2.024300000000000E-002 -4.636000000000000E-003        
  0.000000000000000E+000  0.000000000000000E+000  0.000000000000000E+000        
   147.300000000000       7.918100000000000E-002 -1.872400000000000E-002        
  0.000000000000000E+000  0.000000000000000E+000  0.000000000000000E+000        
   47.5500000000000       0.230687000000000      -5.846300000000000E-002        
  0.000000000000000E+000  0.000000000000000E+000  0.000000000000000E+000        
   16.7600000000000       0.433118000000000      -0.136463000000000             
  0.000000000000000E+000  0.000000000000000E+000  0.000000000000000E+000        
   6.20700000000000       0.350260000000000      -0.175740000000000             
  0.000000000000000E+000  0.000000000000000E+000  0.000000000000000E+000        
   1.75200000000000       4.272800000000000E-002  0.160934000000000             
   1.00000000000000       0.000000000000000E+000  0.000000000000000E+000        
  0.688200000000000      -8.154000000000000E-003  0.603418000000000             
  0.000000000000000E+000  0.000000000000000E+000  0.000000000000000E+000        
  0.238400000000000       2.381000000000000E-003  0.378765000000000             
  0.000000000000000E+000   1.00000000000000       0.000000000000000E+000        
  7.376000000000001E-002  0.000000000000000E+000  0.000000000000000E+000        
  0.000000000000000E+000  0.000000000000000E+000   1.00000000000000             
    6    4                                                                      
   34.4600000000000       1.592800000000000E-002  0.000000000000000E+000        
  0.000000000000000E+000  0.000000000000000E+000                                
   7.74900000000000       9.974000000000000E-002  0.000000000000000E+000        
  0.000000000000000E+000  0.000000000000000E+000                                
   2.28000000000000       0.310492000000000       0.000000000000000E+000        
  0.000000000000000E+000  0.000000000000000E+000                                
  0.715600000000000       0.491026000000000        1.00000000000000             
  0.000000000000000E+000  0.000000000000000E+000                                
  0.214000000000000       0.336337000000000       0.000000000000000E+000        
   1.00000000000000       0.000000000000000E+000                                
  5.974000000000000E-002  0.000000000000000E+000  0.000000000000000E+000        
  0.000000000000000E+000   1.00000000000000                                     
    3    3                                                                      
   2.31400000000000        1.00000000000000       0.000000000000000E+000        
  0.000000000000000E+000                                                        
  0.645000000000000       0.000000000000000E+000   1.00000000000000             
  0.000000000000000E+000                                                        
  0.214000000000000       0.000000000000000E+000  0.000000000000000E+000        
   1.00000000000000                                                             
    2    2                                                                      
   1.42800000000000        1.00000000000000       0.000000000000000E+000        
  0.500000000000000       0.000000000000000E+000   1.00000000000000             
          1.00000000    1    3    1    1    1                                   
H #2  -0.650613375827203  -1.146041707763815   0.000000000000000                
    6    4                                                                      
   33.8700000000000       6.068000000000000E-003  0.000000000000000E+000        
  0.000000000000000E+000  0.000000000000000E+000                                
   5.09500000000000       4.530800000000000E-002  0.000000000000000E+000        
  0.000000000000000E+000  0.000000000000000E+000                                
   1.15900000000000       0.202822000000000       0.000000000000000E+000        
  0.000000000000000E+000  0.000000000000000E+000                                
  0.325800000000000       0.503903000000000        1.00000000000000             
  0.000000000000000E+000  0.000000000000000E+000                                
  0.102700000000000       0.383421000000000       0.000000000000000E+000        
   1.00000000000000       0.000000000000000E+000                                
  2.526000000000000E-002  0.000000000000000E+000  0.000000000000000E+000        
  0.000000000000000E+000   1.00000000000000                                     
    3    3                                                                      
   1.40700000000000        1.00000000000000       0.000000000000000E+000        
  0.000000000000000E+000                                                        
  0.388000000000000       0.000000000000000E+000   1.00000000000000             
  0.000000000000000E+000                                                        
  0.102000000000000       0.000000000000000E+000  0.000000000000000E+000        
   1.00000000000000                                                             
    2    2                                                                      
   1.05700000000000        1.00000000000000       0.000000000000000E+000        
  0.247000000000000       0.000000000000000E+000   1.00000000000000             
FINISH                                                                          
 
********************************************************************************
 ONE- AND TWO-ELECTRON INTEGRALS OVER SYMMETRY-ADAPTED AOS ARE CALCULATED.

  SPHERICAL HARMONICS ARE USED.
  
  INTEGRALS LESS THAN  0.10E-13 ARE NEGLECTED.

  NUCLEAR REPULSION ENERGY :   31.7046922236 A.U.
  @MOLECU-I, ONE ELECTRON INTEGRALS (CPU/WALL):        0.04/       0.04 SECONDS.
  @TWOEL-I,    1246094 INTEGRALS OF SYMMETRY TYPE  I I I I
  @TWOEL-I,    4620815 INTEGRALS OF SYMMETRY TYPE  I J I J
  @TWOEL-I,    2438161 INTEGRALS OF SYMMETRY TYPE  I I J J
  @TWOEL-I,    3358092 INTEGRALS OF SYMMETRY TYPE  I J K L
  @TWOEL-I, TOTAL NUMBER OF 2-E INTEGRALS   11663162.
  @MOLECU-I, TWO ELECTRON INTEGRALS (CPU/WALL):        3.12/       3.44 SECONDS.
 @CHECKOUT-I, Total execution time (CPU/WALL):        3.17/       3.50 seconds.

Running with 12 threads/proc

--executable xvmol finished with status     0 in        3.58 seconds (walltime).
 --invoking executable--
/apps/eb/cfour/2.1-iompi-2018a-serial/bin/xvmol2ja
 @GETMEM-I,  Allocated   38146 MB of main memory.
 @CHECKOUT-I, Total execution time (CPU/WALL):        0.01/       0.01 seconds.
--executable xvmol2ja finished with status     0 in        0.08 seconds (walltime).
 --invoking executable--
/apps/eb/cfour/2.1-iompi-2018a-serial/bin/xvscf
  There are  138 functions in the AO basis.

  There are 4 irreducible representations.

       Irrep        # of functions
         1                 46
         2                 23
         3                 46
         4                 23


  Parameters for SCF calculation: 
        SCF reference function:  UHF  
  Maximum number of iterations:  200
     Full symmetry point group: C2h 
     Computational point group: C2h 
        Initial density matrix: CORE                   
     SCF convergence tolerance: 10**(-12)
  DIIS convergence acceleration:  ON
          Latest start for DIIS:   8
                     DIIS order:   6

  Memory information:     904766 words required.
  Fock matrices are constructed from AO integral file.
 @GETMEM-I,  Allocated       6 MB of main memory.
  Initialization and symmetry analysis required      0.002 seconds.

  @INITGES-I, Occupancies from core Hamiltonian:

          Alpha population by irrep:   4    1    4    1
           Beta population by irrep:   3    1    3    1


 total no. of electrons in initial guess :  0.000000000000000E+000
 total no. of electrons in initial guess :  0.000000000000000E+000
  --------------------------------------------------------------------
  Iteration         Total Energy            Largest Density Difference
  --------------------------------------------------------------------
       0            31.704692223568419              0.0000000000D+00
   current occupation vector 
     4  1  4  1
     3  1  3  1
       1          -128.779550816795393              0.2983618129D+01
   current occupation vector 
     4  1  4  1
     3  1  3  1
       2          -130.048887982653838              0.3011756040D+02
   current occupation vector 
     5  1  4  0
     3  1  4  0
       3          -145.286231711641989              0.3012043626D+02
   current occupation vector 
     4  1  4  1
     4  1  3  0
       4          -143.792594302653072              0.1566571230D+02
   current occupation vector 
     5  1  4  0
     4  0  4  0
       5          -148.668159483468315              0.1566615731D+02
   current occupation vector 
     4  1  4  1
     4  1  3  0
       6          -149.976110705837840              0.8418060054D+00
   current occupation vector 
     4  1  4  1
     4  1  3  0
       7          -150.525737500847470              0.3133554338D+00
   current occupation vector 
     4  1  4  1
     4  1  3  0
       8          -150.665875738989456              0.1989900405D+00
   current occupation vector 
     4  1  4  1
     4  1  3  0
       9          -150.705034799482831              0.5557766463D-01
   current occupation vector 
     4  1  4  1
     4  1  3  0
      10          -150.705531665345518              0.4001131812D-02
   current occupation vector 
     4  1  4  1
     4  1  3  0
      11          -150.705639239691010              0.2590231674D-02
   current occupation vector 
     4  1  4  1
     4  1  3  0
      12          -150.705645311555685              0.6517814764D-03
   current occupation vector 
     4  1  4  1
     4  1  3  0
      13          -150.705645672792627              0.1529181701D-03
   current occupation vector 
     4  1  4  1
     4  1  3  0
      14          -150.705645745099957              0.8735409244D-04
   current occupation vector 
     4  1  4  1
     4  1  3  0
      15          -150.705645757095823              0.4006109693D-04
   current occupation vector 
     4  1  4  1
     4  1  3  0
      16          -150.705645759524344              0.2733755209D-04
   current occupation vector 
     4  1  4  1
     4  1  3  0
      17          -150.705645759621433              0.3707927279D-05
   current occupation vector 
     4  1  4  1
     4  1  3  0
      18          -150.705645759647496              0.2170755929D-05
   current occupation vector 
     4  1  4  1
     4  1  3  0
      19          -150.705645759651134              0.1049376329D-05
   current occupation vector 
     4  1  4  1
     4  1  3  0
      20          -150.705645759653549              0.2814117454D-06
   current occupation vector 
     4  1  4  1
     4  1  3  0
      21          -150.705645759652725              0.9675123136D-07
   current occupation vector 
     4  1  4  1
     4  1  3  0
      22          -150.705645759653748              0.3347137278D-07
   current occupation vector 
     4  1  4  1
     4  1  3  0
      23          -150.705645759652384              0.1279644612D-07
   current occupation vector 
     4  1  4  1
     4  1  3  0
      24          -150.705645759653237              0.2068137245D-08
   current occupation vector 
     4  1  4  1
     4  1  3  0
      25          -150.705645759652015              0.9753884367D-09
   current occupation vector 
     4  1  4  1
     4  1  3  0
      26          -150.705645759652469              0.3925303416D-09
   current occupation vector 
     4  1  4  1
     4  1  3  0
      27          -150.705645759652782              0.2260941434D-09
   current occupation vector 
     4  1  4  1
     4  1  3  0
      28          -150.705645759653521              0.3365985268D-10
   current occupation vector 
     4  1  4  1
     4  1  3  0
      29          -150.705645759653009              0.1324512722D-10
   current occupation vector 
     4  1  4  1
     4  1  3  0
      30          -150.705645759653635              0.6711256550D-11
   current occupation vector 
     4  1  4  1
     4  1  3  0
      31          -150.705645759653493              0.8891359871D-11
   current occupation vector 
     4  1  4  1
     4  1  3  0
      32          -150.705645759653351              0.4731701142D-11
   current occupation vector 
     4  1  4  1
     4  1  3  0
      33          -150.705645759652441              0.1874750355D-11
   current occupation vector 
     4  1  4  1
     4  1  3  0
      34          -150.705645759653180              0.7368688992D-11
   current occupation vector 
     4  1  4  1
     4  1  3  0
      35          -150.705645759653692              0.1709604680D-11
   current occupation vector 
     4  1  4  1
     4  1  3  0
      36          -150.705645759652782              0.5604378073D-11
   current occupation vector 
     4  1  4  1
     4  1  3  0
      37          -150.705645759652612              0.4509987869D-11
   current occupation vector 
     4  1  4  1
     4  1  3  0
      38          -150.705645759653208              0.3367778278D-11
   current occupation vector 
     4  1  4  1
     4  1  3  0
      39          -150.705645759654203              0.2664923837D-11
   current occupation vector 
     4  1  4  1
     4  1  3  0
      40          -150.705645759652867              0.9693398861D-11
   current occupation vector 
     4  1  4  1
     4  1  3  0
      41          -150.705645759653606              0.9927392242D-11
   current occupation vector 
     4  1  4  1
     4  1  3  0
      42          -150.705645759652668              0.4286514199D-10
   current occupation vector 
     4  1  4  1
     4  1  3  0
      43          -150.705645759653692              0.6884021131D-10
   current occupation vector 
     4  1  4  1
     4  1  3  0
      44          -150.705645759653919              0.2833311363D-10
   current occupation vector 
     4  1  4  1
     4  1  3  0
      45          -150.705645759653379              0.3213818101D-11
   current occupation vector 
     4  1  4  1
     4  1  3  0
      46          -150.705645759653407              0.1112610004D-10
   current occupation vector 
     4  1  4  1
     4  1  3  0
      47          -150.705645759652697              0.2946549255D-11
   current occupation vector 
     4  1  4  1
     4  1  3  0
      48          -150.705645759652725              0.3672812054D-11
   current occupation vector 
     4  1  4  1
     4  1  3  0
      49          -150.705645759652811              0.1045944581D-10
   current occupation vector 
     4  1  4  1
     4  1  3  0
      50          -150.705645759652526              0.1254561732D-10
   current occupation vector 
     4  1  4  1
     4  1  3  0
      51          -150.705645759653265              0.3086655931D-11
   current occupation vector 
     4  1  4  1
     4  1  3  0
      52          -150.705645759653123              0.3892837441D-11
   current occupation vector 
     4  1  4  1
     4  1  3  0
      53          -150.705645759653663              0.7640971189D-11
   current occupation vector 
     4  1  4  1
     4  1  3  0
      54          -150.705645759653493              0.3601688392D-11
   current occupation vector 
     4  1  4  1
     4  1  3  0
      55          -150.705645759653493              0.5103188705D-11
   current occupation vector 
     4  1  4  1
     4  1  3  0
      56          -150.705645759654033              0.5164202399D-11
   current occupation vector 
     4  1  4  1
     4  1  3  0
      57          -150.705645759653777              0.4473713067D-11
   current occupation vector 
     4  1  4  1
     4  1  3  0
      58          -150.705645759652640              0.1426478380D-10
   current occupation vector 
     4  1  4  1
     4  1  3  0
      59          -150.705645759654089              0.1077128664D-10
   current occupation vector 
     4  1  4  1
     4  1  3  0
      60          -150.705645759651873              0.1606931255D-10
   current occupation vector 
     4  1  4  1
     4  1  3  0
      61          -150.705645759652583              0.2043873404D-10
   current occupation vector 
     4  1  4  1
     4  1  3  0
      62          -150.705645759654288              0.1206711120D-10
   current occupation vector 
     4  1  4  1
     4  1  3  0
      63          -150.705645759653208              0.7719436201D-11
   current occupation vector 
     4  1  4  1
     4  1  3  0
      64          -150.705645759652725              0.7165629201D-11
   current occupation vector 
     4  1  4  1
     4  1  3  0
      65          -150.705645759652839              0.4717948254D-11
   current occupation vector 
     4  1  4  1
     4  1  3  0
      66          -150.705645759653635              0.7626239917D-11
   current occupation vector 
     4  1  4  1
     4  1  3  0
      67          -150.705645759653095              0.3425544570D-11
   current occupation vector 
     4  1  4  1
     4  1  3  0
      68          -150.705645759653294              0.2923869480D-11
   current occupation vector 
     4  1  4  1
     4  1  3  0
      69          -150.705645759654232              0.1036462582D-10
   current occupation vector 
     4  1  4  1
     4  1  3  0
      70          -150.705645759654374              0.5231141909D-11
   current occupation vector 
     4  1  4  1
     4  1  3  0
      71          -150.705645759652185              0.1603493727D-10
   current occupation vector 
     4  1  4  1
     4  1  3  0
      72          -150.705645759654004              0.1470404354D-10
   current occupation vector 
     4  1  4  1
     4  1  3  0
      73          -150.705645759652839              0.2377600894D-10
   current occupation vector 
     4  1  4  1
     4  1  3  0
      74          -150.705645759653748              0.2002913113D-10
   current occupation vector 
     4  1  4  1
     4  1  3  0
      75          -150.705645759653237              0.1957350948D-10
   current occupation vector 
     4  1  4  1
     4  1  3  0
      76          -150.705645759652555              0.9355793917D-11
   current occupation vector 
     4  1  4  1
     4  1  3  0
      77          -150.705645759654374              0.7536138380D-11
   current occupation vector 
     4  1  4  1
     4  1  3  0
      78          -150.705645759653237              0.3764946688D-11
   current occupation vector 
     4  1  4  1
     4  1  3  0
      79          -150.705645759653521              0.3021041750D-11
   current occupation vector 
     4  1  4  1
     4  1  3  0
      80          -150.705645759653265              0.3723403530D-11
   current occupation vector 
     4  1  4  1
     4  1  3  0
      81          -150.705645759653066              0.1705607877D-11
   current occupation vector 
     4  1  4  1
     4  1  3  0
      82          -150.705645759653322              0.3371497526D-11
   current occupation vector 
     4  1  4  1
     4  1  3  0
      83          -150.705645759652867              0.3467615084D-11
   current occupation vector 
     4  1  4  1
     4  1  3  0
      84          -150.705645759653265              0.4174424695D-11
   current occupation vector 
     4  1  4  1
     4  1  3  0
      85          -150.705645759652356              0.2637563778D-11
   current occupation vector 
     4  1  4  1
     4  1  3  0
      86          -150.705645759652668              0.1898710356D-11
   current occupation vector 
     4  1  4  1
     4  1  3  0
      87          -150.705645759652384              0.1287553397D-11
   current occupation vector 
     4  1  4  1
     4  1  3  0
      88          -150.705645759653294              0.5487589549D-11
   current occupation vector 
     4  1  4  1
     4  1  3  0
      89          -150.705645759653549              0.4806433029D-11
   current occupation vector 
     4  1  4  1
     4  1  3  0
      90          -150.705645759653379              0.3976818874D-11
   current occupation vector 
     4  1  4  1
     4  1  3  0
      91          -150.705645759653464              0.3803068971D-11
   current occupation vector 
     4  1  4  1
     4  1  3  0
      92          -150.705645759652583              0.1584475606D-11
   current occupation vector 
     4  1  4  1
     4  1  3  0
      93          -150.705645759653862              0.5298053662D-11
   current occupation vector 
     4  1  4  1
     4  1  3  0
      94          -150.705645759653436              0.4662863845D-11
   current occupation vector 
     4  1  4  1
     4  1  3  0
      95          -150.705645759653208              0.1119367099D-10
   current occupation vector 
     4  1  4  1
     4  1  3  0
      96          -150.705645759652839              0.1463106025D-10
   current occupation vector 
     4  1  4  1
     4  1  3  0
      97          -150.705645759653976              0.2133122845D-10
   current occupation vector 
     4  1  4  1
     4  1  3  0
      98          -150.705645759653152              0.8725246220D-11
   current occupation vector 
     4  1  4  1
     4  1  3  0
      99          -150.705645759652811              0.5651035195D-11
   current occupation vector 
     4  1  4  1
     4  1  3  0

  SCF has converged.

 Density matrix saved to file den.dat
 total alpha spin electron number:   9.99999999999997     
 total  beta spin electron number:   8.00000000000001     
     E(SCF)=      -150.705645759653748              0.6692424392D-12


  Final occupancies:

     Alpha population by irrep:   4    1    4    1
      Beta population by irrep:   4    1    3    0


  Eigenvector printing suppressed.


       The average multiplicity is    3.0774517
  The expectation value of S**2 is    2.1176773

 @PUTMOS-I, Writing converged MOs to NEWMOS. 
 @PUTMOS-I, Symmetry   1 Full Blocks 11 Partial Blocksize   2
 @PUTMOS-I, Symmetry   2 Full Blocks  5 Partial Blocksize   3
 @PUTMOS-I, Symmetry   3 Full Blocks 11 Partial Blocksize   2
 @PUTMOS-I, Symmetry   4 Full Blocks  5 Partial Blocksize   3
 @PUTFOCK-I, Writing converged Fock matrix to NEWFOCK. 
 @PUTFOCK-I, Symmetry   1 Full Blocks 11 Partial Blocksize   2
 @PUTFOCK-I, Symmetry   2 Full Blocks  5 Partial Blocksize   3
 @PUTFOCK-I, Symmetry   3 Full Blocks 11 Partial Blocksize   2
 @PUTFOCK-I, Symmetry   4 Full Blocks  5 Partial Blocksize   3


 
  ORBITAL EIGENVALUES (ALPHA)  (1H = 27.2113834 eV)

       MO #        E(hartree)               E(eV)           FULLSYM    COMPSYM
       ----   --------------------   --------------------   -------   ---------
    1    70         -20.7008214225        -563.2979884213      Bu        Bu (3)
    2     1         -20.7007729743        -563.2966700802      Ag        Ag (1)
    3     2          -1.5324347073         -41.6996683559      Ag        Ag (1)
    4    71          -1.4204336628         -38.6519649925      Bu        Bu (3)
    5     3          -0.8250451813         -22.4506207502      Ag        Ag (1)
    6    72          -0.7614859582         -20.7210863621      Bu        Bu (3)
    7    47          -0.7005191584         -19.0620953984      Au        Au (2)
    8   116          -0.6552415949         -17.8300302586      Bg        Bg (4)
    9     4          -0.6410098081         -17.4427636519      Ag        Ag (1)
   10    73          -0.6304032276         -17.1541439225      Bu        Bu (3)
  +++++++++++++++++++++++++++++++++++++++++++++++++++++++++++++++++++++++++++++
   11     5           0.0368187049           1.0018878963      Ag        Ag (1)
   12    74           0.0511044247           1.3906220929      Bu        Bu (3)
   13    75           0.1126769567           3.0660958694      Bu        Bu (3)
   14    48           0.1257356059           3.4214397787      Au        Au (2)
   15     6           0.1597290959           4.3464496699      Ag        Ag (1)
   16     7           0.1623377726           4.4174353709      Ag        Ag (1)
   17   117           0.1937457079           5.2720887392      Bg        Bg (4)
   18    76           0.1970227069           5.3612604148      Bu        Bu (3)
   19     8           0.1980262605           5.3885684966      Ag        Ag (1)
   20   118           0.2726333969           7.4187318898      Bg        Bg (4)
   21    77           0.2754905689           7.4964794929      Bu        Bu (3)
   22     9           0.2770384200           7.5385986619      Ag        Ag (1)
   23    78           0.3125298359           8.5043691880      Bu        Bu (3)
   24    49           0.3466377402           9.4324924497      Au        Au (2)
   25    79           0.3829060333          10.4194028788      Bu        Bu (3)
   26    10           0.4500052947          12.2452666051      Ag        Ag (1)
   27    11           0.4718016680          12.8383760761      Ag        Ag (1)
   28    80           0.4966136662          13.5135448738      Bu        Bu (3)
   29    81           0.5554122575          15.1135358827      Bu        Bu (3)
   30    12           0.6512488475          17.7213820782      Ag        Ag (1)
   31    50           0.6563273029          17.8595738741      Au        Au (2)
   32    51           0.7014272202          19.0868050149      Au        Au (2)
   33   119           0.7183407808          19.5470463970      Bg        Bg (4)
   34    82           0.7440930581          20.2478014879      Bu        Bu (3)
   35    13           0.7556483295          20.5622364105      Ag        Ag (1)
   36    14           0.7908119254          21.5190865003      Ag        Ag (1)
   37    83           0.8266630064          22.4946440086      Bu        Bu (3)
   38   120           0.8290751618          22.5602820947      Bg        Bg (4)
   39    52           0.8894849195          24.2041151719      Au        Au (2)
   40    84           0.8902652456          24.2253489262      Bu        Bu (3)
   41    15           0.9000785431          24.4923823257      Ag        Ag (1)
   42    85           0.9220979695          25.0915613817      Bu        Bu (3)
   43   121           0.9636356569          26.2218593186      Bg        Bg (4)
   44    53           0.9663605931          26.2960086011      Au        Au (2)
   45    16           0.9894790505          26.9250938099      Ag        Ag (1)
   46    17           1.0154252194          27.6311249599      Ag        Ag (1)
   47   122           1.0751448834          29.2561796325      Bg        Bg (4)
   48    86           1.0807540070          29.4088116457      Bu        Bu (3)
   49    18           1.1110529787          30.2332885800      Ag        Ag (1)
   50    87           1.1590555391          31.5395046567      Bu        Bu (3)
   51   123           1.1981642638          32.6037071573      Bg        Bg (4)
   52    88           1.2245122185          33.3206714554      Bu        Bu (3)
   53    54           1.3249029744          36.0524428054      Au        Au (2)
   54    19           1.3327520867          36.2660280080      Ag        Ag (1)
   55    20           1.3931155662          37.9086017910      Ag        Ag (1)
   56    89           1.4366397111          39.0929539856      Bu        Bu (3)
   57    21           1.4680775058          39.9484198700      Ag        Ag (1)
   58    55           1.4987036773          40.7818003650      Au        Au (2)
   59   124           1.5670381855          42.6412768689      Bg        Bg (4)
   60    22           1.6771891602          45.6386372737      Ag        Ag (1)
   61    90           1.7940000008          48.8172218407      Bu        Bu (3)
   62    91           1.9551787166          53.2031176719      Bu        Bu (3)
   63    23           2.1191796234          57.6658092248      Ag        Ag (1)
   64    56           2.1213390818          57.7245710759      Au        Au (2)
   65    92           2.1357233796          58.1159877179      Bu        Bu (3)
   66   125           2.1550399838          58.6416192427      Bg        Bg (4)
   67    57           2.2317879121          60.7300365426      Au        Au (2)
   68    93           2.2369667786          60.8709606661      Bu        Bu (3)
   69   126           2.2776403760          61.9777455180      Bg        Bg (4)
   70    24           2.2853673122          62.1880061414      Ag        Ag (1)
   71    58           2.2928746798          62.3922920008      Au        Au (2)
   72    25           2.3676904231          64.4281318745      Ag        Ag (1)
   73    94           2.3976353867          65.2429757620      Bu        Bu (3)
   74    26           2.4163065556          65.7510440963      Ag        Ag (1)
   75    95           2.4419569327          66.4490263421      Bu        Bu (3)
   76    96           2.4754063710          67.3592318316      Bu        Bu (3)
   77    59           2.4970939898          67.9493819414      Au        Au (2)
   78    27           2.5158340877          68.4593259313      Ag        Ag (1)
   79   127           2.5181310823          68.5218303309      Bg        Bg (4)
   80    97           2.5700937179          69.9358055304      Bu        Bu (3)
   81    28           2.6380696119          71.7855236459      Ag        Ag (1)
   82   128           2.7122264702          73.8034343487      Bg        Bg (4)
   83    60           2.7478872710          74.7738140699      Au        Au (2)
   84    29           2.7972564810          76.1172185733      Ag        Ag (1)
   85   129           2.8140131541          76.5731908293      Bg        Bg (4)
   86    30           2.8819262301          78.4211995780      Ag        Ag (1)
   87    98           3.1514185300          85.7544578734      Bu        Bu (3)
   88    99           3.2325613060          87.9624650624      Bu        Bu (3)
   89    31           3.9226253054         106.7400611185      Ag        Ag (1)
   90   100           3.9314699628         106.9807364833      Bu        Bu (3)
   91    32           3.9717323023         108.0763304401      Ag        Ag (1)
   92   130           4.0523184961         110.2691922553      Bg        Bg (4)
   93    61           4.1026431776         111.6385964599      Au        Au (2)
   94   101           4.1049022254         111.7000682735      Bu        Bu (3)
   95   131           4.2541203673         115.7605003445      Bg        Bg (4)
   96    62           4.3732915417         119.0033128624      Au        Au (2)
   97   132           4.3917324636         119.5051158561      Bg        Bg (4)
   98    63           4.4245193645         120.3972927874      Au        Au (2)
   99   102           4.5053368824         122.5964492541      Bu        Bu (3)
  100    33           4.7722012891         129.8581989394      Ag        Ag (1)
  101    34           4.8569956370         132.1655704513      Ag        Ag (1)
  102   103           4.8885524740         133.0242756400      Bu        Bu (3)
  103    35           5.0761205124         138.1282614484      Ag        Ag (1)
  104   104           5.2387925827         142.5547935212      Bu        Bu (3)
  105    36           5.3231227179         144.8495331616      Ag        Ag (1)
  106   133           5.3676833055         146.0620883967      Bg        Bg (4)
  107    64           5.4126255737         147.2850296860      Au        Au (2)
  108    37           5.4862205567         149.2876509850      Ag        Ag (1)
  109   105           5.5847311325         151.9682600331      Bu        Bu (3)
  110   106           5.7732259040         157.0974635284      Bu        Bu (3)
  111    38           6.1860101146         168.3298929441      Ag        Ag (1)
  112   107           6.1894122689         168.4224702695      Bu        Bu (3)
  113    65           6.5303594770         177.7001154682      Au        Au (2)
  114    39           6.6097143534         179.8594714346      Ag        Ag (1)
  115   108           6.6460035165         180.8469497657      Bu        Bu (3)
  116   109           6.6613477447         181.2644874427      Bu        Bu (3)
  117   134           6.6727158025         181.5738280219      Bg        Bg (4)
  118   135           6.6925329385         182.1130797079      Bg        Bg (4)
  119    66           6.7344494193         183.2536851378      Au        Au (2)
  120    40           6.9076246320         187.9660222449      Ag        Ag (1)
  121   136           6.9979416699         190.4236737895      Bg        Bg (4)
  122    67           7.0162564147         190.9220433325      Au        Au (2)
  123   110           7.0821852973         192.7160594350      Bu        Bu (3)
  124   137           7.1041213569         193.3129699631      Bg        Bg (4)
  125    41           7.1802843514         195.3854704066      Ag        Ag (1)
  126    68           7.2374155257         196.9400886944      Au        Au (2)
  127   111           7.2482480266         197.2348560300      Bu        Bu (3)
  128    69           7.2843198664         198.2164206940      Au        Au (2)
  129   138           7.3243400945         199.3054264631      Bg        Bg (4)
  130   112           7.4525040415         202.7929447628      Bu        Bu (3)
  131    42           7.4580877431         202.9448850093      Ag        Ag (1)
  132    43           7.7055888595         209.6797327783      Ag        Ag (1)
  133    44           7.8122524537         212.5821967365      Ag        Ag (1)
  134   113           8.0694488102         219.5808654008      Bu        Bu (3)
  135    45           8.1770624792         222.5091822081      Ag        Ag (1)
  136   114           8.2891616899         225.5595568080      Bu        Bu (3)
  137    46          14.6030470971         397.3691133685      Ag        Ag (1)
  138   115          16.0730986455         437.3712496682      Bu        Bu (3)


 
  ORBITAL EIGENVALUES ( BETA)  (1H = 27.2113834 eV)

       MO #        E(hartree)               E(eV)           FULLSYM    COMPSYM
       ----   --------------------   --------------------   -------   ---------
    1     1         -20.6461625701        -561.8106454324      Ag        Ag (1)
    2    70         -20.6460815715        -561.8084413499      Bu        Bu (3)
    3     2          -1.3706007112         -37.2959414399      Ag        Ag (1)
    4    71          -1.2129796561         -33.0068544786      Bu        Bu (3)
    5    72          -0.7145414724         -19.4436619600      Bu        Bu (3)
    6     3          -0.6616905123         -18.0055142234      Ag        Ag (1)
    7     4          -0.4422904165         -12.0353340963      Ag        Ag (1)
    8    47          -0.3731888107         -10.1549838089      Au        Au (2)
  +++++++++++++++++++++++++++++++++++++++++++++++++++++++++++++++++++++++++++++
    9   116          -0.0441702435          -1.2019334318      Bg        Bg (4)
   10    73          -0.0134264573          -0.3653524783      Bu        Bu (3)
   11     5           0.0362504321           0.9864244070      Ag        Ag (1)
   12    74           0.0563859835           1.5343406143      Bu        Bu (3)
   13    75           0.1181322091           3.2145408333      Bu        Bu (3)
   14    48           0.1392537333           3.7892867264      Au        Au (2)
   15     6           0.1616566902           4.3989021754      Ag        Ag (1)
   16     7           0.1631870414           4.4405451496      Ag        Ag (1)
   17     8           0.2021775088           5.5015297063      Ag        Ag (1)
   18   117           0.2089329818           5.6853554722      Bg        Bg (4)
   19    76           0.2141013950           5.8259951455      Bu        Bu (3)
   20   118           0.2706276083           7.3641516093      Bg        Bg (4)
   21     9           0.2737234442           7.4483935854      Ag        Ag (1)
   22    77           0.2772103455           7.5432769940      Bu        Bu (3)
   23    78           0.3156760516           8.5899820713      Bu        Bu (3)
   24    49           0.3717168937          10.1149309113      Au        Au (2)
   25    79           0.3826050528          10.4112127827      Bu        Bu (3)
   26    10           0.4723364290          12.8529276641      Ag        Ag (1)
   27    11           0.4806995085          13.0804986263      Ag        Ag (1)
   28    80           0.5030524228          13.6887523483      Bu        Bu (3)
   29    81           0.5531459148          15.0518655649      Bu        Bu (3)
   30    12           0.6535115101          17.7829522571      Ag        Ag (1)
   31    50           0.6607860766          17.9809032755      Au        Au (2)
   32    51           0.7051991621          19.1894447730      Au        Au (2)
   33   119           0.7168442067          19.5063225459      Bg        Bg (4)
   34    82           0.7655014776          20.8303542003      Bu        Bu (3)
   35    13           0.7743809458          21.0719768142      Ag        Ag (1)
   36    14           0.7953185685          21.6417184936      Ag        Ag (1)
   37    83           0.8468575938          23.0441666714      Bu        Bu (3)
   38   120           0.8667488437          23.5854350977      Bg        Bg (4)
   39    84           0.8954724704          24.3670447172      Bu        Bu (3)
   40    15           0.9240976464          25.1459753551      Ag        Ag (1)
   41    52           0.9365406911          25.4845678160      Au        Au (2)
   42    85           0.9380716195          25.5262264937      Bu        Bu (3)
   43    53           0.9836930222          26.7676479757      Au        Au (2)
   44   121           0.9870978476          26.8602979850      Bg        Bg (4)
   45    16           0.9991852435          27.1892127475      Ag        Ag (1)
   46    17           1.0541845785          28.6858207397      Ag        Ag (1)
   47    86           1.0852570659          29.5313461085      Bu        Bu (3)
   48   122           1.1017627816          29.9804894656      Bg        Bg (4)
   49    18           1.1228405452          30.5540445716      Ag        Ag (1)
   50    87           1.1627750166          31.6407167836      Bu        Bu (3)
   51   123           1.1999065290          32.6511166053      Bg        Bg (4)
   52    88           1.2265594105          33.3763783821      Bu        Bu (3)
   53    54           1.3396646527          36.4541284926      Au        Au (2)
   54    19           1.3536546551          36.8348158108      Ag        Ag (1)
   55    20           1.4115167851          38.4093244151      Ag        Ag (1)
   56    89           1.4657905699          39.8861891820      Bu        Bu (3)
   57    21           1.4805256266          40.2871504587      Ag        Ag (1)
   58    55           1.5084324693          41.0465342559      Au        Au (2)
   59   124           1.5781856349          42.9446143870      Bg        Bg (4)
   60    22           1.6998882186          46.2563100530      Ag        Ag (1)
   61    90           1.8045985250          49.1056223464      Bu        Bu (3)
   62    91           1.9808612009          53.9019736006      Bu        Bu (3)
   63    23           2.1497772704          58.4984135304      Ag        Ag (1)
   64    56           2.1778070919          59.2611437502      Au        Au (2)
   65    92           2.1903519702          59.6025072422      Bu        Bu (3)
   66   125           2.2367748902          60.8657391174      Bg        Bg (4)
   67    57           2.2480461320          61.1724451995      Au        Au (2)
   68    93           2.2734123794          61.8626958814      Bu        Bu (3)
   69   126           2.3106049646          62.8747575789      Bg        Bg (4)
   70    58           2.3267214510          63.3133094687      Au        Au (2)
   71    24           2.3305378638          63.4171593414      Ag        Ag (1)
   72    25           2.3933741073          65.1270204534      Ag        Ag (1)
   73    94           2.4190587657          65.8259355414      Bu        Bu (3)
   74    26           2.4329009474          66.2026004533      Ag        Ag (1)
   75    95           2.4673991471          67.1413441919      Bu        Bu (3)
   76    96           2.4971385547          67.9505946143      Bu        Bu (3)
   77    59           2.5061384090          68.1954930999      Au        Au (2)
   78   127           2.5314442389          68.8840997410      Bg        Bg (4)
   79    27           2.5361356621          69.0117598562      Ag        Ag (1)
   80    97           2.5916972224          70.5236667743      Bu        Bu (3)
   81    28           2.6516032022          72.1537913588      Ag        Ag (1)
   82   128           2.7344815878          74.4090268867      Bg        Bg (4)
   83    60           2.7858390963          75.8065357409      Au        Au (2)
   84    29           2.8313857642          77.0459235832      Ag        Ag (1)
   85   129           2.8407127568          77.2997239549      Bg        Bg (4)
   86    30           2.9049559560          79.0478702784      Ag        Ag (1)
   87    98           3.1808896245          86.5564071264      Bu        Bu (3)
   88    99           3.2654399400          88.8571381769      Bu        Bu (3)
   89   100           3.9329282926         107.0204196554      Bu        Bu (3)
   90    31           3.9396630464         107.2036816213      Ag        Ag (1)
   91    32           3.9929696806         108.6542288825      Ag        Ag (1)
   92   130           4.1016645836         111.6119675634      Bg        Bg (4)
   93   101           4.1661598872         113.3669739965      Bu        Bu (3)
   94    61           4.1730405519         113.5542064014      Au        Au (2)
   95   131           4.2889723274         116.7088703919      Bg        Bg (4)
   96    62           4.3681674258         118.8638785787      Au        Au (2)
   97   132           4.3890885408         119.4331710615      Bg        Bg (4)
   98    63           4.4493112064         121.0719131046      Au        Au (2)
   99   102           4.5082682025         122.6762145288      Bu        Bu (3)
  100    33           4.7900091837         130.3427763877      Ag        Ag (1)
  101    34           4.8593659819         132.2300708140      Ag        Ag (1)
  102   103           4.9102600597         133.6149690791      Bu        Bu (3)
  103    35           5.1114437733         139.0894562422      Ag        Ag (1)
  104   104           5.2714791249         143.4442395515      Bu        Bu (3)
  105    36           5.3477098910         145.5185841551      Ag        Ag (1)
  106   133           5.3957572243         146.8260185634      Bg        Bg (4)
  107    64           5.4448493849         148.1618841681      Au        Au (2)
  108    37           5.5372338095         150.6757921653      Ag        Ag (1)
  109   105           5.5910919965         152.1413479418      Bu        Bu (3)
  110   106           5.8093869354         158.0814552187      Bu        Bu (3)
  111   107           6.2220284503         169.3100016862      Bu        Bu (3)
  112    38           6.2251667436         169.3953989887      Ag        Ag (1)
  113    65           6.5792904096         179.0315938362      Au        Au (2)
  114    39           6.6572665496         181.1534324764      Ag        Ag (1)
  115   108           6.6989832519         182.2886016563      Bu        Bu (3)
  116   109           6.7137021786         182.6891240145      Bu        Bu (3)
  117   134           6.7226162202         182.9316874181      Bg        Bg (4)
  118   135           6.7478041374         183.6170854898      Bg        Bg (4)
  119    66           6.7945316787         184.8886065318      Au        Au (2)
  120    40           6.9780472563         189.8823192758      Ag        Ag (1)
  121    67           7.1064221331         193.3755772669      Au        Au (2)
  122   136           7.1135086547         193.5684113224      Bg        Bg (4)
  123   110           7.1343845613         194.1364736205      Bu        Bu (3)
  124   137           7.1639962753         194.9422493229      Bg        Bg (4)
  125    41           7.2530797432         197.3663337237      Ag        Ag (1)
  126    68           7.2990014560         198.6159270567      Au        Au (2)
  127   111           7.3440214641         199.8409837562      Bu        Bu (3)
  128    69           7.3533988088         200.0961542788      Au        Au (2)
  129   138           7.3780651820         200.7673604172      Bg        Bg (4)
  130    42           7.4864884047         203.7177062996      Ag        Ag (1)
  131   112           7.4951832806         203.9543059009      Bu        Bu (3)
  132    43           7.7667870102         211.3450191207      Ag        Ag (1)
  133    44           7.8535933978         213.7071410151      Ag        Ag (1)
  134   113           8.1010341402         220.4403459242      Bu        Bu (3)
  135    45           8.2239148492         223.7841000117      Ag        Ag (1)
  136   114           8.3329510094         226.7511247709      Bu        Bu (3)
  137    46          14.6403121442         398.3831468517      Ag        Ag (1)
  138   115          16.1114424540         438.4146377418      Bu        Bu (3)


  VSCF finished.

 @CHECKOUT-I, Total execution time (CPU/WALL):       10.37/      10.41 seconds.
--executable xvscf finished with status     0 in       10.47 seconds (walltime).
 --invoking executable--
/apps/eb/cfour/2.1-iompi-2018a-serial/bin/xvtran
 @GETMEM-I,  Allocated   38146 MB of main memory.
  Full UHF integral transformation
  Frozen-core orbitals requested within analytic derivative calculation
  Transformation of IIII integrals :
  2 passes through the AO integral file were required.
     1246094 AO integrals were read.
     1246094 MO integrals (Spin case AAAA) were written to HF2AA.
     1246094 MO integrals (Spin case BBBB) were written to HF2BB.
     2489474 MO integrals (Spin case AABB) were written to HF2AB.
  Transformation of IIJJ integrals :
  2 passes through the AO integral file were required.
     2438161 AO integrals were read.
     2438161 MO integrals (Spin case AAAA) were written to HF2AA.
     2438161 MO integrals (Spin case BBBB) were written to HF2BB.
     4876322 MO integrals (Spin case AABB) were written to HF2AB.
  Transformation of IJIJ integrals :
  2 passes through the AO integral file were required.
     4620815 AO integrals were read.
     4620815 MO integrals (Spin case AAAA) were written to HF2AA.
     4620815 MO integrals (Spin case BBBB) were written to HF2BB.
     9234753 MO integrals (Spin case AABB) were written to HF2AB.
  Transformation of IJKL integrals :
  2 passes through the AO integral file were required.
     3358092 AO integrals were read.
     3358092 MO integrals (Spin case AAAA) were written to HF2AA.
     3358092 MO integrals (Spin case BBBB) were written to HF2BB.
     6716184 MO integrals (Spin case AABB) were written to HF2AB.
  Summary of active molecular orbitals: 
------------------------------------------------------------------------
                         * Spin case alpha *
 
  Index      Eigenvalue    Symmetry    Index      Eigenvalue    Symmetry
------------------------------------------------------------------------
     1       -20.7007730        1        70         6.5303595        2
     2        -1.5324347        1        71         6.7344494        2
     3        -0.8250452        1        72         7.0162564        2
     4        -0.6410098        1        73         7.2374155        2
     5        -0.7005192        2        74         7.2843199        2
     6       -20.7008214        3        75         0.0511044        3
     7        -1.4204337        3        76         0.1126770        3
     8        -0.7614860        3        77         0.1970227        3
     9        -0.6304032        3        78         0.2754906        3
    10        -0.6552416        4        79         0.3125298        3
    11         0.0368187        1        80         0.3829060        3
    12         0.1597291        1        81         0.4966137        3
    13         0.1623378        1        82         0.5554123        3
    14         0.1980263        1        83         0.7440931        3
    15         0.2770384        1        84         0.8266630        3
    16         0.4500053        1        85         0.8902652        3
    17         0.4718017        1        86         0.9220980        3
    18         0.6512488        1        87         1.0807540        3
    19         0.7556483        1        88         1.1590555        3
    20         0.7908119        1        89         1.2245122        3
    21         0.9000785        1        90         1.4366397        3
    22         0.9894791        1        91         1.7940000        3
    23         1.0154252        1        92         1.9551787        3
    24         1.1110530        1        93         2.1357234        3
    25         1.3327521        1        94         2.2369668        3
    26         1.3931156        1        95         2.3976354        3
    27         1.4680775        1        96         2.4419569        3
    28         1.6771892        1        97         2.4754064        3
    29         2.1191796        1        98         2.5700937        3
    30         2.2853673        1        99         3.1514185        3
    31         2.3676904        1       100         3.2325613        3
    32         2.4163066        1       101         3.9314700        3
    33         2.5158341        1       102         4.1049022        3
    34         2.6380696        1       103         4.5053369        3
    35         2.7972565        1       104         4.8885525        3
    36         2.8819262        1       105         5.2387926        3
    37         3.9226253        1       106         5.5847311        3
    38         3.9717323        1       107         5.7732259        3
    39         4.7722013        1       108         6.1894123        3
    40         4.8569956        1       109         6.6460035        3
    41         5.0761205        1       110         6.6613477        3
    42         5.3231227        1       111         7.0821853        3
    43         5.4862206        1       112         7.2482480        3
    44         6.1860101        1       113         7.4525040        3
    45         6.6097144        1       114         8.0694488        3
    46         6.9076246        1       115         8.2891617        3
    47         7.1802844        1       116        16.0730986        3
    48         7.4580877        1       117         0.1937457        4
    49         7.7055889        1       118         0.2726334        4
    50         7.8122525        1       119         0.7183408        4
    51         8.1770625        1       120         0.8290752        4
    52        14.6030471        1       121         0.9636357        4
    53         0.1257356        2       122         1.0751449        4
    54         0.3466377        2       123         1.1981643        4
    55         0.6563273        2       124         1.5670382        4
    56         0.7014272        2       125         2.1550400        4
    57         0.8894849        2       126         2.2776404        4
    58         0.9663606        2       127         2.5181311        4
    59         1.3249030        2       128         2.7122265        4
    60         1.4987037        2       129         2.8140132        4
    61         2.1213391        2       130         4.0523185        4
    62         2.2317879        2       131         4.2541204        4
    63         2.2928747        2       132         4.3917325        4
    64         2.4970940        2       133         5.3676833        4
    65         2.7478873        2       134         6.6727158        4
    66         4.1026432        2       135         6.6925329        4
    67         4.3732915        2       136         6.9979417        4
    68         4.4245194        2       137         7.1041214        4
    69         5.4126256        2       138         7.3243401        4
------------------------------------------------------------------------
------------------------------------------------------------------------
                         * Spin case beta *
 
  Index      Eigenvalue    Symmetry    Index      Eigenvalue    Symmetry
------------------------------------------------------------------------
     1       -20.6461626        1        70         7.1064221        2
     2        -1.3706007        1        71         7.2990015        2
     3        -0.6616905        1        72         7.3533988        2
     4        -0.4422904        1        73        -0.0134265        3
     5        -0.3731888        2        74         0.0563860        3
     6       -20.6460816        3        75         0.1181322        3
     7        -1.2129797        3        76         0.2141014        3
     8        -0.7145415        3        77         0.2772103        3
     9         0.0362504        1        78         0.3156761        3
    10         0.1616567        1        79         0.3826051        3
    11         0.1631870        1        80         0.5030524        3
    12         0.2021775        1        81         0.5531459        3
    13         0.2737234        1        82         0.7655015        3
    14         0.4723364        1        83         0.8468576        3
    15         0.4806995        1        84         0.8954725        3
    16         0.6535115        1        85         0.9380716        3
    17         0.7743809        1        86         1.0852571        3
    18         0.7953186        1        87         1.1627750        3
    19         0.9240976        1        88         1.2265594        3
    20         0.9991852        1        89         1.4657906        3
    21         1.0541846        1        90         1.8045985        3
    22         1.1228405        1        91         1.9808612        3
    23         1.3536547        1        92         2.1903520        3
    24         1.4115168        1        93         2.2734124        3
    25         1.4805256        1        94         2.4190588        3
    26         1.6998882        1        95         2.4673991        3
    27         2.1497773        1        96         2.4971386        3
    28         2.3305379        1        97         2.5916972        3
    29         2.3933741        1        98         3.1808896        3
    30         2.4329009        1        99         3.2654399        3
    31         2.5361357        1       100         3.9329283        3
    32         2.6516032        1       101         4.1661599        3
    33         2.8313858        1       102         4.5082682        3
    34         2.9049560        1       103         4.9102601        3
    35         3.9396630        1       104         5.2714791        3
    36         3.9929697        1       105         5.5910920        3
    37         4.7900092        1       106         5.8093869        3
    38         4.8593660        1       107         6.2220285        3
    39         5.1114438        1       108         6.6989833        3
    40         5.3477099        1       109         6.7137022        3
    41         5.5372338        1       110         7.1343846        3
    42         6.2251667        1       111         7.3440215        3
    43         6.6572665        1       112         7.4951833        3
    44         6.9780473        1       113         8.1010341        3
    45         7.2530797        1       114         8.3329510        3
    46         7.4864884        1       115        16.1114425        3
    47         7.7667870        1       116        -0.0441702        4
    48         7.8535934        1       117         0.2089330        4
    49         8.2239148        1       118         0.2706276        4
    50        14.6403121        1       119         0.7168442        4
    51         0.1392537        2       120         0.8667488        4
    52         0.3717169        2       121         0.9870978        4
    53         0.6607861        2       122         1.1017628        4
    54         0.7051992        2       123         1.1999065        4
    55         0.9365407        2       124         1.5781856        4
    56         0.9836930        2       125         2.2367749        4
    57         1.3396647        2       126         2.3106050        4
    58         1.5084325        2       127         2.5314442        4
    59         2.1778071        2       128         2.7344816        4
    60         2.2480461        2       129         2.8407128        4
    61         2.3267215        2       130         4.1016646        4
    62         2.5061384        2       131         4.2889723        4
    63         2.7858391        2       132         4.3890885        4
    64         4.1730406        2       133         5.3957572        4
    65         4.3681674        2       134         6.7226162        4
    66         4.4493112        2       135         6.7478041        4
    67         5.4448494        2       136         7.1135087        4
    68         6.5792904        2       137         7.1639963        4
    69         6.7945317        2       138         7.3780652        4
------------------------------------------------------------------------
  -20.7007729743053       -1.53243470730227      -0.825045181282251     
 -0.641009808118381      -0.700519158404735       -20.7008214224531     
  -1.42043366279361      -0.761485958191632      -0.630403227587600     
 -0.655241594904246       3.681870493547309E-002  0.159729095946665     
  0.162337772613148       0.198026260456817       0.277038419954624     
  0.450005294663827       0.471801667976893       0.651248847501156     
  0.755648329533802       0.790811925435246       0.900078543072446     
  0.989479050515975        1.01542521942717        1.11105297865760     
   1.33275208668585        1.39311556615064        1.46807750575284     
   1.67718916024464        2.11917962336328        2.28536731217584     
   2.36769042306322        2.41630655559705        2.51583408770502     
[...]
 ======================================================================
 Norm of residual vector:     0.30401675
 CPU time [min]:  2024.722                   Wall time [min]:   321.482
 
 Iteration  3  CI energy:  -151.25898019  Energy decrease:   0.0000E+00
 ======================================================================
 Norm of residual vector:     0.14235409
 CPU time [min]:  2083.578                   Wall time [min]:   331.081
 
 Iteration  4  CI energy:  -151.25898019  Energy decrease:   0.0000E+00
 ======================================================================
 Norm of residual vector:     0.06799963
 CPU time [min]:  2142.620                   Wall time [min]:   340.738
 
 Iteration  5  CI energy:  -151.25898019  Energy decrease:   0.0000E+00
 ======================================================================
 Norm of residual vector:     0.03414047
 CPU time [min]:  2199.469                   Wall time [min]:   350.261
 
 Iteration  6  CI energy:  -151.25898019  Energy decrease:   0.0000E+00
 ======================================================================
 Norm of residual vector:     0.02139322
 CPU time [min]:  2259.342                   Wall time [min]:   360.088
 
 Iteration  7  CI energy:  -151.25898019  Energy decrease:   0.0000E+00
 ======================================================================
 Norm of residual vector:     0.01244095
 CPU time [min]:  2319.433                   Wall time [min]:   369.977
 
 Iteration  8  CI energy:  -151.25898019  Energy decrease:   0.0000E+00
 ======================================================================
 Norm of residual vector:     0.00811622
 CPU time [min]:  2380.171                   Wall time [min]:   379.944
 
 Iteration  9  CI energy:  -151.25898019  Energy decrease:   0.0000E+00
 ======================================================================
 Norm of residual vector:     0.00377628
 CPU time [min]:  2440.941                   Wall time [min]:   389.946
 
 Iteration 10  CI energy:  -151.25898019  Energy decrease:   0.0000E+00
 ======================================================================
 Norm of residual vector:     0.00207187
 CPU time [min]:  2501.191                   Wall time [min]:   399.975
 
 Iteration 11  CI energy:  -151.25898019  Energy decrease:   0.0000E+00
 ======================================================================
 Norm of residual vector:     0.00091724
 CPU time [min]:  2562.643                   Wall time [min]:   410.214
 
 Iteration 12  CI energy:  -151.25898019  Energy decrease:   0.0000E+00
 ======================================================================
 Norm of residual vector:     0.00039611
 CPU time [min]:  2624.306                   Wall time [min]:   420.455
 
 Iteration 13  CI energy:  -151.25898019  Energy decrease:   0.0000E+00
 ======================================================================
 Norm of residual vector:     0.00018481
 CPU time [min]:  2686.625                   Wall time [min]:   430.795
 
 Iteration 14  CI energy:  -151.25898019  Energy decrease:   0.0000E+00
 ======================================================================
 Norm of residual vector:     0.00008188
 CPU time [min]:  2748.917                   Wall time [min]:   441.201
 
 Iteration 15  CI energy:  -151.25898019  Energy decrease:   0.0000E+00
 ======================================================================
 Norm of residual vector:     0.00003627
 CPU time [min]:  2811.796                   Wall time [min]:   451.700
 
 Iteration 16  CI energy:  -151.25898019  Energy decrease:   0.0000E+00
 ======================================================================
 Norm of residual vector:     0.00001684
 CPU time [min]:  2874.337                   Wall time [min]:   462.196
 
 Iteration 17  CI energy:  -151.25898019  Energy decrease:   0.0000E+00
 ======================================================================
 Norm of residual vector:     0.00000778
 CPU time [min]:  2937.779                   Wall time [min]:   472.825
 
 Iteration 18  CI energy:  -151.25898019  Energy decrease:   0.0000E+00
 ======================================================================
 Norm of residual vector:     0.00000356
 CPU time [min]:  3001.803                   Wall time [min]:   483.555
 
 Iteration 19  CI energy:  -151.25898019  Energy decrease:   0.0000E+00
 ======================================================================
 Norm of residual vector:     0.00000162
 CPU time [min]:  3065.476                   Wall time [min]:   494.302
 
 Iteration 20  CI energy:  -151.25898019  Energy decrease:   0.0000E+00
 ======================================================================
 Norm of residual vector:     0.00000070
 CPU time [min]:  3129.290                   Wall time [min]:   505.082
 
 Iteration 21  CI energy:  -151.25898019  Energy decrease:   0.0000E+00
 ======================================================================
 Norm of residual vector:     0.00000031
 CPU time [min]:  3193.060                   Wall time [min]:   515.868
 
 Iteration 22  CI energy:  -151.25898019  Energy decrease:   0.0000E+00
 ======================================================================
 Norm of residual vector:     0.00000015
 CPU time [min]:  3257.591                   Wall time [min]:   526.796
 
 Iteration 23  CI energy:  -151.25898019  Energy decrease:   0.0000E+00
 ======================================================================
 Norm of residual vector:     0.00000007
 CPU time [min]:  3322.749                   Wall time [min]:   537.915
 
 Iteration 24  CI energy:  -151.25898019  Energy decrease:   0.0000E+00
 ======================================================================
 Norm of residual vector:     0.00000003
 CPU time [min]:  3388.037                   Wall time [min]:   549.089
 
 Iteration 25  CI energy:  -151.25898019  Energy decrease:   0.0000E+00
 ======================================================================
 Norm of residual vector:     0.00000001
 CPU time [min]:  3453.659                   Wall time [min]:   560.394
 
 Iteration 26  CI energy:  -151.25898019  Energy decrease:   0.0000E+00
 ======================================================================
 Norm of residual vector:     0.00000001
 CPU time [min]:  3519.568                   Wall time [min]:   571.699
 
 Iteration 27  CI energy:  -151.25898019  Energy decrease:   0.0000E+00
 ======================================================================
 Norm of residual vector:     2.3583E-09
 CPU time [min]:  3585.621                   Wall time [min]:   583.047
 
 Iteration 28  CI energy:  -151.25898019  Energy decrease:   0.0000E+00
 ======================================================================
 Norm of residual vector:     1.0256E-09
 CPU time [min]:  3651.819                   Wall time [min]:   594.468
 
 Iteration 29  CI energy:  -151.25898019  Energy decrease:   0.0000E+00
 ======================================================================
 Norm of residual vector:     4.5536E-10
 CPU time [min]:  3718.486                   Wall time [min]:   606.050
 
 Iteration 30  CI energy:  -151.25898019  Energy decrease:   0.0000E+00
 ======================================================================
 Norm of residual vector:     2.0673E-10
 CPU time [min]:  3785.513                   Wall time [min]:   617.698
 
 Iteration 31  CI energy:  -151.25898019  Energy decrease:   0.0000E+00
 ======================================================================
 Norm of residual vector:     9.8137E-11
 CPU time [min]:  3852.968                   Wall time [min]:   629.489
 
 Iteration 32  CI energy:  -151.25898019  Energy decrease:   0.0000E+00
 ======================================================================
 Norm of residual vector:     4.6692E-11
 CPU time [min]:  3920.692                   Wall time [min]:   641.253
 
 Iteration 33  CI energy:  -151.25898019  Energy decrease:   0.0000E+00
 ======================================================================
 Norm of residual vector:     2.2431E-11
 CPU time [min]:  3988.929                   Wall time [min]:   653.280
 
 Iteration 34  CI energy:  -151.25898019  Energy decrease:   0.0000E+00
 ======================================================================
 Norm of residual vector:     1.0487E-11
 CPU time [min]:  4057.593                   Wall time [min]:   665.370
 
 Iteration 35  CI energy:  -151.25898019  Energy decrease:   0.0000E+00
 ======================================================================
 Norm of residual vector:     4.8774E-12
 CPU time [min]:  4126.021                   Wall time [min]:   677.480
 
 Iteration 36  CI energy:  -151.25898019  Energy decrease:   0.0000E+00
 ======================================================================
 Norm of residual vector:     2.0521E-12
 CPU time [min]:  4195.457                   Wall time [min]:   689.691
 
 Iteration 37  CI energy:  -151.25898019  Energy decrease:   0.0000E+00
 ======================================================================
 Norm of residual vector:     8.8509E-13
 CPU time [min]:  4252.873                   Wall time [min]:   698.848
 
 Iteration 38  CI energy:  -151.25898019  Energy decrease:   0.0000E+00
 ======================================================================
 
 Iteration has converged in 38 steps.
 
 Final results:
 Total CCSDT energy [au]:           -151.258980191002
 
 
 
 Calculating reduced density-matrix for root 1...
 
 Total energy from RDM [au]:        -151.258980191002
 
 ************************ 2021-02-02 23:42:14 *************************
                      Normal termination of mrcc.
 **********************************************************************
--executable dmrcc finished with status     0 in    43870.60 seconds (walltime).
 --invoking executable--
/apps/eb/cfour/2.1-iompi-2018a-serial/bin/xdens
 @GETMEM-I,  Allocated   38146 MB of main memory.
  CCSDT density and intermediates are calculated.
  The perturbed orbitals are chosen canonical.
   Frozen core orbitals in analytic derivative calculation
  dropped orbitals                     1                     0
                     1                     0                     0
                     0                     0                     0
 ITERM.tmp does not exsit!
 skip reading
  @S2EXPECT-I, S**2 calculated as expectation value.
  @S2EXPECT-I, Contributions to <S**2> : 
  From one particle density : 
    D(ai)   :   -0.1215307763
    D(ij)   :    0.3539611803
    D(ab)   :   -0.1767101329
  From two particle density : 
    G(abcd) :   -0.0516375211
    G(abci) :    0.0220770924
    G(abij) :   -0.0777794441
    G(aibj) :   -0.0340552442
    G(ijka) :    0.0209757528
    G(ijkl) :   -0.0521491872
              Reference state <S**2>        :    2.1176772648.
              Total one particle correction :    0.0557202711.
              Total two particle correction :   -0.1725685514.
              Expectation value of <S**2>   :    2.0008289846.
  The iterative expansion of D(ai) converged after  19 iterations.
  ----------------------------------------------------------------------
                 Natural orbital occupation numbers
  ----------------------------------------------------------------------
                            Alpha spin
  ----------------------------------------------------------------------
  1.00000  1.00000  0.99222  0.99120  0.98452  0.98367  0.98269  0.98044
  0.97916  0.97789  0.01763  0.01544  0.01296  0.00710  0.00686  0.00685
  0.00560  0.00500  0.00415  0.00412  0.00382  0.00376  0.00373  0.00365
  0.00355  0.00353  0.00344  0.00232  0.00083  0.00083  0.00074  0.00074
  0.00060  0.00059  0.00052  0.00050  0.00049  0.00049  0.00043  0.00040
  0.00038  0.00036  0.00035  0.00035  0.00035  0.00033  0.00032  0.00032
  0.00030  0.00030  0.00029  0.00029  0.00029  0.00028  0.00027  0.00026
  0.00024  0.00023  0.00018  0.00011  0.00010  0.00010  0.00009  0.00008
  0.00008  0.00007  0.00006  0.00006  0.00006  0.00006  0.00005  0.00005
  0.00005  0.00004  0.00004  0.00004  0.00004  0.00004  0.00003  0.00003
  0.00003  0.00003  0.00003  0.00003  0.00003  0.00002  0.00002  0.00002
  0.00002  0.00002  0.00002  0.00002  0.00002  0.00002  0.00002  0.00002
  0.00002  0.00002  0.00002  0.00001  0.00001  0.00001  0.00001  0.00001
  0.00001  0.00001  0.00001  0.00001  0.00001  0.00000  0.00000  0.00000
  0.00000  0.00000  0.00000  0.00000  0.00000  0.00000  0.00000  0.00000
  0.00000  0.00000  0.00000  0.00000  0.00000  0.00000  0.00000  0.00000
  0.00000  0.00000  0.00000  0.00000  0.00000  0.00000  0.00000  0.00000
  0.00000  0.00000
  Trace of density matrix :  10.0000000000.
  ----------------------------------------------------------------------
                            Beta spin
  ----------------------------------------------------------------------
  1.00001  1.00001  0.98748  0.98409  0.98101  0.97788  0.83918  0.83606
  0.15305  0.15256  0.01547  0.00994  0.00704  0.00612  0.00506  0.00472
  0.00341  0.00340  0.00308  0.00273  0.00269  0.00263  0.00257  0.00218
  0.00217  0.00190  0.00153  0.00140  0.00072  0.00064  0.00060  0.00051
  0.00049  0.00041  0.00041  0.00036  0.00034  0.00028  0.00028  0.00027
  0.00026  0.00026  0.00024  0.00024  0.00023  0.00021  0.00021  0.00021
  0.00020  0.00020  0.00020  0.00019  0.00019  0.00016  0.00016  0.00016
  0.00015  0.00015  0.00012  0.00010  0.00008  0.00008  0.00007  0.00007
  0.00007  0.00007  0.00006  0.00005  0.00005  0.00005  0.00005  0.00005
  0.00004  0.00004  0.00004  0.00003  0.00003  0.00003  0.00003  0.00003
  0.00002  0.00002  0.00002  0.00002  0.00002  0.00002  0.00002  0.00002
  0.00002  0.00002  0.00002  0.00002  0.00002  0.00002  0.00002  0.00001
  0.00001  0.00001  0.00001  0.00001  0.00001  0.00001  0.00001  0.00001
  0.00001  0.00001  0.00001  0.00001  0.00000  0.00000  0.00000  0.00000
  0.00000  0.00000  0.00000  0.00000  0.00000  0.00000  0.00000  0.00000
  0.00000  0.00000  0.00000  0.00000  0.00000  0.00000  0.00000  0.00000
  0.00000  0.00000  0.00000  0.00000  0.00000  0.00000  0.00000  0.00000
  0.00000  0.00000
  Trace of density matrix :   8.0000000000.
  ----------------------------------------------------------------------
  Density calculation successfully completed.
 @CHECKOUT-I, Total execution time (CPU/WALL):      185.12/     186.48 seconds.
--executable xdens finished with status     0 in      186.52 seconds (walltime).
 --invoking executable--
/apps/eb/cfour/2.1-iompi-2018a-serial/bin/xanti
 @GETMEM-I,  Allocated   38146 MB of main memory.
 CCSDT MO gammas will be sorted to Mulliken order.
 @CHECKOUT-I, Total execution time (CPU/WALL):        5.48/       5.50 seconds.
--executable xanti finished with status     0 in        6.92 seconds (walltime).
 --invoking executable--
/apps/eb/cfour/2.1-iompi-2018a-serial/bin/xbcktrn
 @GETMEM-I,  Allocated   38146 MB of main memory.
 CCSDT MO gammas will be transformed to the AO basis.
 @CHECKOUT-I, Total execution time (CPU/WALL):        1.40/       1.41 seconds.
--executable xbcktrn finished with status     0 in        1.81 seconds (walltime).
 --invoking executable--
/apps/eb/cfour/2.1-iompi-2018a-serial/bin/xvdint
 @GETMEM-I,  Allocated   38146 MB of main memory.
 One- and two-electron integral derivatives are calculated
 for UHF-CC/MBPT gradients and dipole moments.
 Spherical gaussians are used.

                     Kinetic energy integral gradient
                     --------------------------------

                         O #1 x     1.0850362128
                         O #1 y    -0.8987964684
                         H #2 x    -0.9224390259
                         H #2 y     1.0133211233


 O #1 1     0.5425181064           -0.4493982342            0.0000000000
 O #1 2    -0.5425181064            0.4493982342            0.0000000000
 H #2 1    -0.4612195129            0.5066605617            0.0000000000
 H #2 2     0.4612195129           -0.5066605617            0.0000000000



                   Nuclear attraction integral gradient
                   ------------------------------------

                         O #1 x   -28.2263413237
                         O #1 y     7.4222934171
                         H #2 x     5.2283374371
                         H #2 y   -10.4220100298


 O #1 1   -14.1131706619            3.7111467086            0.0000000000
 O #1 2    14.1131706619           -3.7111467086            0.0000000000
 H #2 1     2.6141687185           -5.2110050149            0.0000000000
 H #2 2    -2.6141687185            5.2110050149            0.0000000000



                      Reorthonormalization gradient
                      -----------------------------

                         O #1 x     0.3142024592
                         O #1 y    -0.3418820670
                         H #2 x    -0.1889846243
                         H #2 y     0.4330636667


 O #1 1     0.1571012296           -0.1709410335            0.0000000000
 O #1 2    -0.1571012296            0.1709410335            0.0000000000
 H #2 1    -0.0944923122            0.2165318334            0.0000000000
 H #2 2     0.0944923122           -0.2165318334            0.0000000000



                Electronic contributions to dipole moment
                -----------------------------------------

                     All components zero by symmetry

  Conversion factor used: 1 a.u. =   2.54174691 Debye 


 Evaluation of 1e integral derivatives required    0.14 seconds.
 Evaluation of 2el integral derivatives

                      Two-electron integral gradient
                      ------------------------------

                         O #1 x    12.7400813116
                         O #1 y    -3.4170862865
                         H #2 x    -2.2424524242
                         H #2 y     4.5507156882


 O #1 1     6.3700406558           -1.7085431433            0.0000000000
 O #1 2    -6.3700406558            1.7085431433            0.0000000000
 H #2 1    -1.1212262121            2.2753578441            0.0000000000
 H #2 2     1.1212262121           -2.2753578441            0.0000000000


 Evaluation of 2e integral derivatives required    9.68 seconds.

                            Molecular gradient
                            ------------------

                         O #1 x     0.1430248799
                         O #1 y    -0.0835144053
                         H #2 x    -0.0472864064
                         H #2 y     0.1606321876


 O #1 1     0.0715124400           -0.0417572026            0.0000000000
 O #1 2    -0.0715124400            0.0417572026            0.0000000000
 H #2 1    -0.0236432032            0.0803160938            0.0000000000
 H #2 2     0.0236432032           -0.0803160938            0.0000000000


  Molecular gradient norm 0.236E+00

                           Total dipole moment
                           -------------------

                     All components zero by symmetry

  Conversion factor used: 1 a.u. =   2.54174691 Debye 


 @CHECKOUT-I, Total execution time (CPU/WALL):        9.80/      11.09 seconds.
--executable xvdint finished with status     0 in       11.78 seconds (walltime).
 --invoking executable--
/apps/eb/cfour/2.1-iompi-2018a-serial/bin/xjoda
  igrd and ihes are                      0                    -1
  gradient from JOBARC 
   0.071512439970950  -0.041757202633057   0.000000000000000
  -0.071512439970950   0.041757202633057   0.000000000000000
  -0.023643203180221   0.080316093819115   0.000000000000000
   0.023643203180221  -0.080316093819115   0.000000000000000
 
 @CHECKOUT-I, Total execution time (CPU/WALL):        0.07/       0.09 seconds.
--executable xjoda finished with status     0 in        2.78 seconds (walltime).
  The final electronic energy is      -151.258980191001598 a.u. 
  This computation required                        44194.11 seconds (walltime).
