
    -----------------------------------------------------------------------
          Psi4: An Open-Source Ab Initio Electronic Structure Package
                               Psi4 1.3.2 release

                         Git: Rev {HEAD} ecbda83 


    R. M. Parrish, L. A. Burns, D. G. A. Smith, A. C. Simmonett,
    A. E. DePrince III, E. G. Hohenstein, U. Bozkaya, A. Yu. Sokolov,
    R. Di Remigio, R. M. Richard, J. F. Gonthier, A. M. James,
    H. R. McAlexander, A. Kumar, M. Saitow, X. Wang, B. P. Pritchard,
    P. Verma, H. F. Schaefer III, K. Patkowski, R. A. King, E. F. Valeev,
    F. A. Evangelista, J. M. Turney, T. D. Crawford, and C. D. Sherrill,
    J. Chem. Theory Comput. 13(7) pp 3185--3197 (2017).
    (doi: 10.1021/acs.jctc.7b00174)


                         Additional Contributions by
    P. Kraus, H. Kruse, M. H. Lechner, M. C. Schieber, R. A. Shaw,
    A. Alenaizan, R. Galvelis, Z. L. Glick, S. Lehtola, and J. P. Misiewicz

    -----------------------------------------------------------------------


    Psi4 started on: Monday, 08 March 2021 04:57PM

    Process ID: 81508
    Host:       c2-18.compute.lan
    PSIDATADIR: /apps/gb/PSI4/1.3.2/share/psi4
    Memory:     500.0 MiB
    Threads:    12
    
  ==> Input File <==

--------------------------------------------------------------------------
memory 4 GB

molecule  {
0 3
O    0.000000000000    0.000000000000    1.252538719011
H    0.000000000000   -0.758665699200    1.845111690229
H   -0.000000000000    0.758665699200    1.845111690229
O    0.000000000000    0.000000000000   -1.485056340130
}
set {
basis aug-cc-pvtz
reference uhf
e_convergence 10
scf_type pk
freeze_core true
}

set ccenergy {
e_convergence 10
r_convergence 10
}

e = energy('ccsd(t)')

print_out('Stephenergy {}'.format(e))

--------------------------------------------------------------------------

  Memory set to   3.725 GiB by Python driver.

*** tstart() called on c2-18.compute.lan
*** at Mon Mar  8 16:57:25 2021

   => Loading Basis Set <=

    Name: AUG-CC-PVTZ
    Role: ORBITAL
    Keyword: BASIS
    atoms 1, 4 entry O          line   327 file /apps/gb/PSI4/1.3.2/share/psi4/basis/aug-cc-pvtz.gbs 
    atoms 2-3  entry H          line    36 file /apps/gb/PSI4/1.3.2/share/psi4/basis/aug-cc-pvtz.gbs 


         ---------------------------------------------------------
                                   SCF
               by Justin Turney, Rob Parrish, Andy Simmonett
                          and Daniel G. A. Smith
                              UHF Reference
                       12 Threads,   3814 MiB Core
         ---------------------------------------------------------

  ==> Geometry <==

    Molecular point group: c2v
    Full point group: C2v

    Geometry (in Angstrom), charge = 0, multiplicity = 3:

       Center              X                  Y                   Z               Mass       
    ------------   -----------------  -----------------  -----------------  -----------------
         O            0.000000000000     0.000000000000     1.252538719011    15.994914619570
         H            0.000000000000    -0.758665699200     1.845111690229     1.007825032230
         H           -0.000000000000     0.758665699200     1.845111690229     1.007825032230
         O            0.000000000000     0.000000000000    -1.485056340130    15.994914619570

  Running in c2v symmetry.

  Rotational constants: A =     14.53050  B =      0.25074  C =      0.24649 [cm^-1]
  Rotational constants: A = 435613.33328  B =   7517.06561  C =   7389.54948 [MHz]
  Nuclear repulsion =   23.994146944259811

  Charge       = 0
  Multiplicity = 3
  Electrons    = 18
  Nalpha       = 10
  Nbeta        = 8

  ==> Algorithm <==

  SCF Algorithm Type is PK.
  DIIS enabled.
  MOM disabled.
  Fractional occupation disabled.
  Guess Type is SAD.
  Energy threshold   = 1.00e-10
  Density threshold  = 1.00e-08
  Integral threshold = 0.00e+00

  ==> Primary Basis <==

  Basis Set: AUG-CC-PVTZ
    Blend: AUG-CC-PVTZ
    Number of shells: 46
    Number of basis function: 138
    Number of Cartesian functions: 160
    Spherical Harmonics?: true
    Max angular momentum: 3

  ==> Pre-Iterations <==

   -------------------------------------------------------
    Irrep   Nso     Nmo     Nalpha   Nbeta   Ndocc  Nsocc
   -------------------------------------------------------
     A1        54      54       0       0       0       0
     A2        17      17       0       0       0       0
     B1        29      29       0       0       0       0
     B2        38      38       0       0       0       0
   -------------------------------------------------------
    Total     138     138      10       8       8       2
   -------------------------------------------------------

  ==> Integral Setup <==

  Using in-core PK algorithm.
   Calculation information:
      Number of atoms:                   4
      Number of AO shells:              46
      Number of primitives:             82
      Number of atomic orbitals:       160
      Number of basis functions:       138

      Integral cutoff                 1.00e-12
      Number of threads:                12

  Performing in-core PK
  Using 91996872 doubles for integral storage.
  We computed 912870 shell quartets total.
  Whereas there are 584821 unique shell quartets.
    56.09 percent of shell quartets recomputed by reordering.

  ==> DiskJK: Disk-Based J/K Matrices <==

    J tasked:                  Yes
    K tasked:                  Yes
    wK tasked:                  No
    Memory [MiB]:             2861
    Schwarz Cutoff:          1E-12

    OpenMP threads:             12

  Minimum eigenvalue in the overlap matrix is 3.2173394171E-04.
  Using Symmetric Orthogonalization.

  SCF Guess: Superposition of Atomic Densities via on-the-fly atomic UHF.

  ==> Iterations <==

                        Total Energy        Delta E     RMS |[F,P]|

   @UHF iter SAD:  -149.38178040704452   -1.49382e+02   0.00000e+00 
   @UHF iter   1:  -150.76940030253778   -1.38762e+00   6.68020e-03 DIIS
   @UHF iter   2:  -150.84048115711028   -7.10809e-02   4.24339e-03 DIIS
   @UHF iter   3:  -150.87168979067016   -3.12086e-02   5.63949e-04 DIIS
   @UHF iter   4:  -150.87310630117472   -1.41651e-03   1.70656e-04 DIIS
   @UHF iter   5:  -150.87324134423096   -1.35043e-04   6.96459e-05 DIIS
   @UHF iter   6:  -150.87327427090804   -3.29267e-05   2.09356e-05 DIIS
   @UHF iter   7:  -150.87327738873876   -3.11783e-06   5.41932e-06 DIIS
   @UHF iter   8:  -150.87327761784323   -2.29104e-07   1.54455e-06 DIIS
   @UHF iter   9:  -150.87327763620752   -1.83643e-08   4.08139e-07 DIIS
   @UHF iter  10:  -150.87327763759333   -1.38581e-09   1.99398e-07 DIIS
   @UHF iter  11:  -150.87327763803768   -4.44345e-10   7.39848e-08 DIIS
   @UHF iter  12:  -150.87327763809802   -6.03393e-11   1.56665e-08 DIIS
   @UHF iter  13:  -150.87327763810006   -2.04636e-12   4.57235e-09 DIIS
  Energy and wave function converged.


  ==> Post-Iterations <==

   @Spin Contamination Metric:   9.553679251E-03
   @S^2 Expected:                2.000000000E+00
   @S^2 Observed:                2.009553679E+00
   @S   Expected:                1.000000000E+00
   @S   Observed:                1.000000000E+00

    Orbital Energies [Eh]
    ---------------------

    Alpha Occupied:                                                       

       1A1   -20.683773     2A1   -20.571654     3A1    -1.393336  
       4A1    -1.355181     1B2    -0.717558     5A1    -0.688084  
       1B1    -0.684574     6A1    -0.586720     2B2    -0.585581  
       2B1    -0.514180  

    Alpha Virtual:                                                        

       7A1     0.029518     3B2     0.047680     8A1     0.118143  
       3B1     0.154417     9A1     0.159320     4B2     0.180255  
       5B2     0.187493     4B1     0.192936    10A1     0.198370  
       1A2     0.263782     6B2     0.264419    11A1     0.265910  
      12A1     0.314323     5B1     0.326840    13A1     0.375869  
       7B2     0.380546    14A1     0.449802     8B2     0.464042  
       9B2     0.599916     6B1     0.644715    15A1     0.648177  
       2A2     0.658250    16A1     0.667172    17A1     0.701284  
       3A2     0.722197    10B2     0.725231     7B1     0.769389  
      18A1     0.792276    19A1     0.821090     8B1     0.837942  
      20A1     0.860561     9B1     0.901237    11B2     0.918284  
       4A2     0.925237    12B2     0.947298    13B2     0.982540  
      21A1     0.991565    10B1     1.017391    22A1     1.046734  
      14B2     1.051540    11B1     1.124256     5A2     1.177086  
      23A1     1.192391    15B2     1.202456    16B2     1.332233  
      24A1     1.335533    25A1     1.456538     6A2     1.506747  
      12B1     1.594212    26A1     1.669179    27A1     1.813461  
      17B2     1.824802    18B2     1.973934    28A1     2.041240  
      13B1     2.048798    19B2     2.054709     7A2     2.059179  
      14B1     2.059472    29A1     2.079458    30A1     2.115249  
       8A2     2.119925    20B2     2.139817    31A1     2.141951  
      15B1     2.150057    32A1     2.254414    21B2     2.277030  
      16B1     2.302180     9A2     2.311175    17B1     2.441080  
      33A1     2.477873    22B2     2.483345    34A1     2.496725  
      35A1     2.697934    18B1     2.717411    23B2     2.721280  
      36A1     2.849350    24B2     2.857604    10A2     2.879433  
      25B2     3.693065    37A1     3.748766    11A2     4.013903  
      19B1     4.078018    20B1     4.100486    38A1     4.139760  
      26B2     4.185575    27B2     4.283969    21B1     4.284808  
      39A1     4.358877    12A2     4.381895    40A1     4.426693  
      22B1     4.455415    28B2     4.516697    41A1     4.795880  
      29B2     4.839146    13A2     5.139983    30B2     5.143674  
      31B2     5.241946    42A1     5.336424    23B1     5.514195  
      43A1     5.681427    44A1     6.202126    24B1     6.391681  
      14A2     6.411614    45A1     6.412490    32B2     6.424773  
      25B1     6.436492    33B2     6.494119    46A1     6.546169  
      34B2     6.580476    26B1     6.720190    27B1     6.904883  
      47A1     6.909426    15A2     6.925440    48A1     6.949674  
      35B2     6.988077    49A1     7.047002    28B1     7.132648  
      29B1     7.279188    36B2     7.299195    16A2     7.304457  
      17A2     7.351136    50A1     7.440144    51A1     7.539399  
      52A1     7.902551    37B2     7.914942    38B2     8.803090  
      53A1     8.898390    54A1    15.741392  

    Beta Occupied:                                                        

       1A1   -20.604883     2A1   -20.571135     3A1    -1.354438  
       4A1    -1.050488     1B2    -0.717186     5A1    -0.588846  
       1B1    -0.513439     2B2    -0.494971  

    Beta Virtual:                                                         

       6A1     0.029356     3B2     0.047763     2B1     0.087024  
       7A1     0.092156     8A1     0.141473     9A1     0.166973  
       3B1     0.170912     4B2     0.180864     5B2     0.191125  
      10A1     0.225795     4B1     0.253649     1A2     0.263784  
       6B2     0.264852    11A1     0.288955    12A1     0.316681  
       5B1     0.328113     7B2     0.380715    13A1     0.386631  
      14A1     0.450904     8B2     0.464258     9B2     0.601581  
      15A1     0.660565     6B1     0.668564     2A2     0.672569  
      16A1     0.674054    17A1     0.718571     3A2     0.722720  
      10B2     0.737381     7B1     0.781035    18A1     0.807002  
       8B1     0.847111    19A1     0.852167     4A2     0.925665  
      20A1     0.928294    11B2     0.936407    12B2     0.953807  
      13B2     0.986426     9B1     0.988075    21A1     0.998674  
      14B2     1.052702    22A1     1.053390    10B1     1.062117  
      11B1     1.141748     5A2     1.177296    23A1     1.193841  
      15B2     1.205167    16B2     1.334701    24A1     1.392111  
      25A1     1.493483     6A2     1.507202    12B1     1.596222  
      26A1     1.700835    27A1     1.818962    17B2     1.825142  
      18B2     1.975419    28A1     2.070623    13B1     2.071387  
      19B2     2.072100     7A2     2.083903    29A1     2.099519  
      14B1     2.102066    30A1     2.154771    20B2     2.187644  
       8A2     2.203015    31A1     2.210217    15B1     2.262236  
       9A2     2.311308    32A1     2.313981    16B1     2.317021  
      21B2     2.326769    17B1     2.449936    33A1     2.483763  
      22B2     2.486195    34A1     2.531248    35A1     2.704574  
      18B1     2.719272    23B2     2.722205    24B2     2.857728  
      36A1     2.862330    10A2     2.879471    25B2     3.694020  
      37A1     3.748903    11A2     4.013936    19B1     4.080296  
      38A1     4.170764    26B2     4.220624    20B1     4.258647  
      21B1     4.291439    27B2     4.295320    12A2     4.382013  
      39A1     4.422574    22B1     4.460912    40A1     4.478357  
      28B2     4.516790    41A1     4.807593    29B2     4.839323  
      13A2     5.140068    30B2     5.143870    31B2     5.242451  
      42A1     5.337095    23B1     5.514321    43A1     5.686518  
      44A1     6.203698    24B1     6.486465    14A2     6.488438  
      32B2     6.488479    45A1     6.495472    25B1     6.500742  
      33B2     6.527591    34B2     6.610990    46A1     6.617779  
      26B1     6.728404    47A1     6.969901    15A2     7.038984  
      48A1     7.043068    27B1     7.087321    35B2     7.099898  
      28B1     7.133176    49A1     7.173379    29B1     7.283344  
      36B2     7.299411    16A2     7.304750    17A2     7.351607  
      50A1     7.443017    51A1     7.540556    52A1     7.903214  
      37B2     7.915332    38B2     8.803500    53A1     8.977378  
      54A1    15.741752  

    Final Occupation by Irrep:
             A1    A2    B1    B2 
    DOCC [     5,    0,    1,    2 ]
    SOCC [     1,    0,    1,    0 ]

  @UHF Final Energy:  -150.87327763810006

   => Energetics <=

    Nuclear Repulsion Energy =             23.9941469442598105
    One-Electron Energy =                -256.0588236622789395
    Two-Electron Energy =                  81.1913990799190799
    Total Energy =                       -150.8732776381000633

  UHF NO Occupations:
  HONO-2 :    5 A1 1.9970475
  HONO-1 :    6 A1 1.0000000
  HONO-0 :    2 B1 1.0000000
  LUNO+0 :    7 A1 0.0029525
  LUNO+1 :    3 B2 0.0018007
  LUNO+2 :    8 A1 0.0000254
  LUNO+3 :    9 A1 0.0000024


Computation Completed


Properties will be evaluated at   0.000000,   0.000000,   0.000000 [a0]

Properties computed using the SCF density matrix

  Nuclear Dipole Moment: [e a0]
     X:     0.0000      Y:     0.0000      Z:     3.4584

  Electronic Dipole Moment: [e a0]
     X:     0.0000      Y:     0.0000      Z:    -2.6169

  Dipole Moment: [e a0]
     X:     0.0000      Y:     0.0000      Z:     0.8415     Total:     0.8415

  Dipole Moment: [D]
     X:     0.0000      Y:     0.0000      Z:     2.1388     Total:     2.1388


*** tstop() called on c2-18.compute.lan at Mon Mar  8 16:57:31 2021
Module time:
	user time   =      44.47 seconds =       0.74 minutes
	system time =       2.56 seconds =       0.04 minutes
	total time  =          6 seconds =       0.10 minutes
Total time:
	user time   =      44.47 seconds =       0.74 minutes
	system time =       2.56 seconds =       0.04 minutes
	total time  =          6 seconds =       0.10 minutes
 MINTS: Wrapper to libmints.
   by Justin Turney

   Calculation information:
      Number of threads:                12
      Number of atoms:                   4
      Number of AO shells:              46
      Number of SO shells:              37
      Number of primitives:             82
      Number of atomic orbitals:       160
      Number of basis functions:       138

      Number of irreps:                  4
      Integral cutoff                 0.00e+00
      Number of functions per irrep: [  54   17   29   38 ]

 OEINTS: Overlap, kinetic, potential, dipole, and quadrupole integrals
         stored in file 35.

      Computing two-electron integrals...done
      Computed 11333566 non-zero two-electron integrals.
        Stored in file 33.


*** tstart() called on c2-18.compute.lan
*** at Mon Mar  8 16:57:34 2021


	Wfn Parameters:
	--------------------
	Wavefunction         = CCSD_T
	Number of irreps     = 4
	Number of MOs        = 138
	Number of active MOs = 136
	AO-Basis             = NONE
	Semicanonical        = false
	Reference            = UHF
	Print Level          = 1

	IRREP	# MOs	# FZDC	# DOCC	# SOCC	# VIRT	# FZVR
	-----	-----	------	------	------	------	------
	 A1	   54	    2	    3	    1	    48	    0
	 A2	   17	    0	    0	    0	    17	    0
	 B1	   29	    0	    1	    1	    27	    0
	 B2	   38	    0	    2	    0	    36	    0
	Transforming integrals...
	IWL integrals will be deleted.
	(OO|OO)...
	Presorting SO-basis two-electron integrals.
	Sorting File: SO Ints (nn|nn) nbuckets = 1
	Transforming the one-electron integrals and constructing Fock matrices
	Starting AA/AB first half-transformation.
	Sorting AA/AB half-transformed integrals.
	Starting BB first half-transformation.
	Sorting BB half-transformed integrals.
	First half integral transformation complete.
	Starting AA second half-transformation.
	Starting AB second half-transformation.
	Starting BB second half-transformation.
	Two-electron integral transformation complete.
	(OO|OV)...
	Starting AA second half-transformation.
	Starting AB second half-transformation.
	Starting BB second half-transformation.
	Two-electron integral transformation complete.
	(OO|VV)...
	Starting AA second half-transformation.
	Starting AB second half-transformation.
	Starting BB second half-transformation.
	Two-electron integral transformation complete.
	(OV|OO)...
	Starting AA/AB first half-transformation.
	Sorting AA/AB half-transformed integrals.
	Starting BB first half-transformation.
	Sorting BB half-transformed integrals.
	First half integral transformation complete.
	Starting AA second half-transformation.
	Starting AB second half-transformation.
	Starting BB second half-transformation.
	Two-electron integral transformation complete.
	(OV|OV)...
	Starting AA second half-transformation.
	Starting AB second half-transformation.
	Starting BB second half-transformation.
	Two-electron integral transformation complete.
	(OV|VV)...
	Starting AA second half-transformation.
	Starting AB second half-transformation.
	Starting BB second half-transformation.
	Two-electron integral transformation complete.
	(VV|OO)...
	Starting AA/AB first half-transformation.
	Sorting AA/AB half-transformed integrals.
	Starting BB first half-transformation.
	Sorting BB half-transformed integrals.
	First half integral transformation complete.
	Starting AA second half-transformation.
	Starting AB second half-transformation.
	Starting BB second half-transformation.
	Two-electron integral transformation complete.
	(VV|OV)...
	Starting AA second half-transformation.
	Starting AB second half-transformation.
	Starting BB second half-transformation.
	Two-electron integral transformation complete.
	(VV|VV)...
	Starting AA second half-transformation.
	Starting AB second half-transformation.
	Starting BB second half-transformation.
	Two-electron integral transformation complete.
	Frozen core energy     =   -126.44171392843892

	Size of irrep 0 of <AB|CD> integrals:      5.040 (MW) /     40.320 (MB)
	Size of irrep 1 of <AB|CD> integrals:      3.197 (MW) /     25.576 (MB)
	Size of irrep 2 of <AB|CD> integrals:      3.640 (MW) /     29.124 (MB)
	Size of irrep 3 of <AB|CD> integrals:      4.783 (MW) /     38.264 (MB)
	Total:                                    16.660 (MW) /    133.283 (MB)

	Size of irrep 0 of <ab|cd> integrals:      5.382 (MW) /     43.059 (MB)
	Size of irrep 1 of <ab|cd> integrals:      3.389 (MW) /     27.114 (MB)
	Size of irrep 2 of <ab|cd> integrals:      3.936 (MW) /     31.490 (MB)
	Size of irrep 3 of <ab|cd> integrals:      5.018 (MW) /     40.141 (MB)
	Total:                                    17.726 (MW) /    141.804 (MB)

	Size of irrep 0 of <Ab|Cd> integrals:     22.024 (MW) /    176.194 (MB)
	Size of irrep 1 of <Ab|Cd> integrals:     13.170 (MW) /    105.357 (MB)
	Size of irrep 2 of <Ab|Cd> integrals:     15.140 (MW) /    121.119 (MB)
	Size of irrep 3 of <Ab|Cd> integrals:     19.598 (MW) /    156.787 (MB)
	Total:                                    69.932 (MW) /    559.457 (MB)

	Size of irrep 0 of <IA|BC> integrals:      1.469 (MW) /     11.748 (MB)
	Size of irrep 1 of <IA|BC> integrals:      0.694 (MW) /      5.550 (MB)
	Size of irrep 2 of <IA|BC> integrals:      0.908 (MW) /      7.266 (MB)
	Size of irrep 3 of <IA|BC> integrals:      1.198 (MW) /      9.588 (MB)
	Total:                                     4.269 (MW) /     34.152 (MB)

	Size of irrep 0 of <ia|bc> integrals:      1.178 (MW) /      9.426 (MB)
	Size of irrep 1 of <ia|bc> integrals:      0.527 (MW) /      4.212 (MB)
	Size of irrep 2 of <ia|bc> integrals:      0.663 (MW) /      5.301 (MB)
	Size of irrep 3 of <ia|bc> integrals:      0.999 (MW) /      7.992 (MB)
	Total:                                     3.366 (MW) /     26.931 (MB)

	Size of irrep 0 of <Ia|Bc> integrals:      1.521 (MW) /     12.164 (MB)
	Size of irrep 1 of <Ia|Bc> integrals:      0.711 (MW) /      5.690 (MB)
	Size of irrep 2 of <Ia|Bc> integrals:      0.949 (MW) /      7.595 (MB)
	Size of irrep 3 of <Ia|Bc> integrals:      1.222 (MW) /      9.775 (MB)
	Total:                                     4.403 (MW) /     35.225 (MB)

	Size of irrep 0 of <iA|bC> integrals:      1.140 (MW) /      9.123 (MB)
	Size of irrep 1 of <iA|bC> integrals:      0.512 (MW) /      4.094 (MB)
	Size of irrep 2 of <iA|bC> integrals:      0.634 (MW) /      5.074 (MB)
	Size of irrep 3 of <iA|bC> integrals:      0.978 (MW) /      7.827 (MB)
	Total:                                     3.265 (MW) /     26.118 (MB)

	Size of irrep 0 of tIjAb amplitudes:       0.084 (MW) /      0.676 (MB)
	Size of irrep 1 of tIjAb amplitudes:       0.022 (MW) /      0.174 (MB)
	Size of irrep 2 of tIjAb amplitudes:       0.039 (MW) /      0.311 (MB)
	Size of irrep 3 of tIjAb amplitudes:       0.062 (MW) /      0.496 (MB)
	Total:                                     0.207 (MW) /      1.657 (MB)

	Nuclear Rep. energy          =     23.99414694425981
	SCF energy                   =   -150.87327763810006
	One-electron energy          =    -85.60684069443235
	Two-electron (AA) energy     =     10.39900257992867
	Two-electron (BB) energy     =      5.48297889864842
	Two-electron (AB) energy     =     21.29914856193281
	Two-electron energy          =     37.18113004050990
	Reference energy             =   -150.87327763810157

*** tstop() called on c2-18.compute.lan at Mon Mar  8 16:58:39 2021
Module time:
	user time   =     456.87 seconds =       7.61 minutes
	system time =      39.66 seconds =       0.66 minutes
	total time  =         65 seconds =       1.08 minutes
Total time:
	user time   =     506.94 seconds =       8.45 minutes
	system time =      42.86 seconds =       0.71 minutes
	total time  =         74 seconds =       1.23 minutes
            **************************
            *                        *
            *        CCENERGY        *
            *                        *
            **************************

    Nuclear Rep. energy (wfn)     =   23.994146944259811
    SCF energy          (wfn)     = -150.873277638100063
    Reference energy    (file100) = -150.873277638101570

    Input parameters:
    -----------------
    Wave function   =     CCSD_T
    Reference wfn   =     UHF
    Brueckner       =     No
    Memory (Mbytes) =     4000.0
    Maxiter         =     50
    R_Convergence   =     1.0e-10
    E_Convergence   =     1.0e-10
    Restart         =     Yes
    DIIS            =     Yes
    AO Basis        =     NONE
    ABCD            =     NEW
    Cache Level     =     2
    Cache Type      =     LRU
    Print Level     =     1
    Num. of threads =     12
    # Amps to Print =     10
    Print MP2 Amps? =     No
    Analyze T2 Amps =     No
    Print Pair Ener =     No
    Local CC        =     No
    SCS-MP2         =     False
    SCSN-MP2        =     False
    SCS-CCSD        =     False

MP2 correlation energy -0.4164918514603306
                Solving CC Amplitude Equations
                ------------------------------
  Iter             Energy              RMS        T1Diag      D1Diag    New D1Diag    D2Diag
  ----     ---------------------    ---------   ----------  ----------  ----------   --------
     0        -0.416491851460331    0.000e+00    0.000000    0.000000    0.000000    0.000000
     1        -0.427231382371149    5.714e-02    0.010625    0.000000    0.000000    0.000000
     2        -0.435347820540866    1.708e-02    0.011122    0.000000    0.000000    0.000000
     3        -0.437509059745467    8.835e-03    0.013064    0.000000    0.000000    0.000000
     4        -0.437381939489834    2.706e-03    0.013483    0.000000    0.000000    0.000000
     5        -0.437372507527274    1.413e-03    0.013684    0.000000    0.000000    0.000000
     6        -0.437401890198307    5.333e-04    0.013713    0.000000    0.000000    0.000000
     7        -0.437404875346111    2.168e-04    0.013708    0.000000    0.000000    0.000000
     8        -0.437405802607496    6.698e-05    0.013703    0.000000    0.000000    0.000000
     9        -0.437406492691212    2.416e-05    0.013703    0.000000    0.000000    0.000000
    10        -0.437405582127368    9.259e-06    0.013702    0.000000    0.000000    0.000000
    11        -0.437405749470920    4.098e-06    0.013702    0.000000    0.000000    0.000000
    12        -0.437405710134861    1.506e-06    0.013702    0.000000    0.000000    0.000000
    13        -0.437405718958369    7.635e-07    0.013702    0.000000    0.000000    0.000000
    14        -0.437405742759639    3.226e-07    0.013702    0.000000    0.000000    0.000000
    15        -0.437405744235388    1.157e-07    0.013702    0.000000    0.000000    0.000000
    16        -0.437405744909558    5.366e-08    0.013702    0.000000    0.000000    0.000000
    17        -0.437405745446614    2.034e-08    0.013702    0.000000    0.000000    0.000000
    18        -0.437405745272337    1.112e-08    0.013702    0.000000    0.000000    0.000000
    19        -0.437405745022902    4.255e-09    0.013702    0.000000    0.000000    0.000000
    20        -0.437405745007433    2.263e-09    0.013702    0.000000    0.000000    0.000000
    21        -0.437405744983389    8.552e-10    0.013702    0.000000    0.000000    0.000000
    22        -0.437405744982439    3.391e-10    0.013702    0.000000    0.000000    0.000000
    23        -0.437405744982061    1.772e-10    0.013702    0.000000    0.000000    0.000000
    24        -0.437405744981854    7.272e-11    0.013702    0.000000    0.000000    0.000000

    Iterations converged.


    Largest TIA Amplitudes:
              5  65        -0.0134305972
              5  67        -0.0111720127
              7  94         0.0105310241
              5  66        -0.0096840337
              3   1         0.0075146200
              4  65        -0.0075043877
              2   3         0.0072128415
              4  66         0.0071740376
              3   5        -0.0055577921
              3   6         0.0054499005

    Largest Tia Amplitudes:
              3  67        -0.0148029858
              2   2         0.0138140331
              3  69        -0.0107691238
              3  66        -0.0080292747
              5  96         0.0080232216
              2   1        -0.0070463316
              2   7         0.0057349150
              2   6        -0.0055165891
              1  25        -0.0054051821
              4 109         0.0053999960

    Largest TIJAB Amplitudes:
      7   4 100  71         0.0141783531
      7   4  55  23        -0.0135673987
      7   2 100  12        -0.0119399108
      4   2  71  12         0.0108017946
      6   5  50   9        -0.0085845095
      7   4  49  23         0.0082425257
      6   5  97  72        -0.0081363553
      7   4  94  71         0.0078961485
      7   4  55   8        -0.0076835648
      7   4 100  82        -0.0074206980

    Largest Tijab Amplitudes:
      5   1  66  56         0.0086587602
      5   1  66  50        -0.0085343174
      5   1  68  56         0.0081656963
      4   3  99  67        -0.0076589418
      5   1  68  50        -0.0074426616
      4   2  99   2         0.0072553961
      4   3  99  73        -0.0072078348
      4   2  99  12         0.0069649340
      4   2 100   9        -0.0067544467
      4   3  51  10        -0.0064480359

    Largest TIjAb Amplitudes:
      6   4  97  99        -0.0219648582
      7   5 100 103        -0.0209807198
      7   5 100 102         0.0196841448
      7   1  55  66        -0.0180037240
      7   5 100  96        -0.0171116633
      7   1  55  68        -0.0168287193
      4   1  23  66        -0.0165055951
      5   3  72  73        -0.0161109706
      4   1  23  68        -0.0153789431
      7   5  55  56        -0.0145250344

    SCF energy       (wfn)                    = -150.873277638100063
    Reference energy (file100)                = -150.873277638101570

    Opposite-spin MP2 correlation energy      =   -0.314576889897045
    Same-spin MP2 correlation energy          =   -0.101914961563286
    MP2 correlation energy                    =   -0.416491851460331
      * MP2 total energy                      = -151.289769489561905

    Opposite-spin CCSD correlation energy     =   -0.342239209881228
    Same-spin CCSD correlation energy         =   -0.095166535100626
    CCSD correlation energy                   =   -0.437405744981854
      * CCSD total energy                     = -151.310683383083415

            **************************
            *                        *
            *        CCTRIPLES       *
            *                        *
            **************************


    Wave function   =    CCSD_T
    Reference wfn   =      UHF

    Nuclear Rep. energy (wfn)                =   23.994146944259811
    SCF energy          (wfn)                = -150.873277638100063
    Reference energy    (file100)            = -150.873277638101570
    CCSD energy         (file100)            =   -0.437405744981854
    Total CCSD energy   (file100)            = -151.310683383083415

    Number of ijk index combinations:
    Spin Case AAA:                                  56
    Spin Case BBB:                                  20
    Spin Case AAB:                                 168
    Spin Case ABB:                                 120
    AAA (T) energy                             =   -0.000396590464174
    BBB (T) energy                             =   -0.000203128375156
    AAB (T) energy                             =   -0.006723094790709
    ABB (T) energy                             =   -0.004999046650348
    (T) energy                                   =   -0.012321860280387
      * CCSD(T) total energy                     = -151.323005243363809

Stephenergy -151.3230052433638
    Psi4 stopped on: Monday, 08 March 2021 04:59PM
    Psi4 wall time for execution: 0:02:32.88

*** Psi4 exiting successfully. Buy a developer a beer!
