
    -----------------------------------------------------------------------
          Psi4: An Open-Source Ab Initio Electronic Structure Package
                               Psi4 1.3.2 release

                         Git: Rev {HEAD} ecbda83 


    R. M. Parrish, L. A. Burns, D. G. A. Smith, A. C. Simmonett,
    A. E. DePrince III, E. G. Hohenstein, U. Bozkaya, A. Yu. Sokolov,
    R. Di Remigio, R. M. Richard, J. F. Gonthier, A. M. James,
    H. R. McAlexander, A. Kumar, M. Saitow, X. Wang, B. P. Pritchard,
    P. Verma, H. F. Schaefer III, K. Patkowski, R. A. King, E. F. Valeev,
    F. A. Evangelista, J. M. Turney, T. D. Crawford, and C. D. Sherrill,
    J. Chem. Theory Comput. 13(7) pp 3185--3197 (2017).
    (doi: 10.1021/acs.jctc.7b00174)


                         Additional Contributions by
    P. Kraus, H. Kruse, M. H. Lechner, M. C. Schieber, R. A. Shaw,
    A. Alenaizan, R. Galvelis, Z. L. Glick, S. Lehtola, and J. P. Misiewicz

    -----------------------------------------------------------------------


    Psi4 started on: Wednesday, 10 March 2021 09:12AM

    Process ID: 30756
    Host:       c1-9.compute.lan
    PSIDATADIR: /apps/gb/PSI4/1.3.2/share/psi4
    Memory:     500.0 MiB
    Threads:    12
    
  ==> Input File <==

--------------------------------------------------------------------------
memory 4 GB

molecule  {
0 3
O    0.000000000000    0.000000000000   -1.233732883486
H    0.000000000000   -0.758665699200   -0.642007123912
H   -0.000000000000    0.758665699200   -0.642007123912
O    0.000000000000    0.000000000000    1.314637454188
}
set {
basis aug-cc-pvtz
reference uhf
e_convergence 10
scf_type pk
freeze_core true
}

set ccenergy {
e_convergence 10
r_convergence 10
}

e = energy('ccsd(t)')

print_out('Stephenergy {}'.format(e))

--------------------------------------------------------------------------

  Memory set to   3.725 GiB by Python driver.

*** tstart() called on c1-9.compute.lan
*** at Wed Mar 10 09:12:53 2021

   => Loading Basis Set <=

    Name: AUG-CC-PVTZ
    Role: ORBITAL
    Keyword: BASIS
    atoms 1, 4 entry O          line   327 file /apps/gb/PSI4/1.3.2/share/psi4/basis/aug-cc-pvtz.gbs 
    atoms 2-3  entry H          line    36 file /apps/gb/PSI4/1.3.2/share/psi4/basis/aug-cc-pvtz.gbs 


         ---------------------------------------------------------
                                   SCF
               by Justin Turney, Rob Parrish, Andy Simmonett
                          and Daniel G. A. Smith
                              UHF Reference
                       12 Threads,   3814 MiB Core
         ---------------------------------------------------------

  ==> Geometry <==

    Molecular point group: c2v
    Full point group: C2v

    Geometry (in Angstrom), charge = 0, multiplicity = 3:

       Center              X                  Y                   Z               Mass       
    ------------   -----------------  -----------------  -----------------  -----------------
         O           -0.000000000000     0.000000000000    -1.233732883486    15.994914619570
         H            0.000000000000    -0.758665699200    -0.642007123912     1.007825032230
         H           -0.000000000000     0.758665699200    -0.642007123912     1.007825032230
         O           -0.000000000000     0.000000000000     1.314637454188    15.994914619570

  Running in c2v symmetry.

  Rotational constants: A =     14.53050  B =      0.31915  C =      0.31229 [cm^-1]
  Rotational constants: A = 435613.33328  B =   9567.91841  C =   9362.28292 [MHz]
  Nuclear repulsion =   26.473121508401071

  Charge       = 0
  Multiplicity = 3
  Electrons    = 18
  Nalpha       = 10
  Nbeta        = 8

  ==> Algorithm <==

  SCF Algorithm Type is PK.
  DIIS enabled.
  MOM disabled.
  Fractional occupation disabled.
  Guess Type is SAD.
  Energy threshold   = 1.00e-10
  Density threshold  = 1.00e-08
  Integral threshold = 0.00e+00

  ==> Primary Basis <==

  Basis Set: AUG-CC-PVTZ
    Blend: AUG-CC-PVTZ
    Number of shells: 46
    Number of basis function: 138
    Number of Cartesian functions: 160
    Spherical Harmonics?: true
    Max angular momentum: 3

  ==> Pre-Iterations <==

   -------------------------------------------------------
    Irrep   Nso     Nmo     Nalpha   Nbeta   Ndocc  Nsocc
   -------------------------------------------------------
     A1        54      54       0       0       0       0
     A2        17      17       0       0       0       0
     B1        29      29       0       0       0       0
     B2        38      38       0       0       0       0
   -------------------------------------------------------
    Total     138     138      10       8       8       2
   -------------------------------------------------------

  ==> Integral Setup <==

  Using in-core PK algorithm.
   Calculation information:
      Number of atoms:                   4
      Number of AO shells:              46
      Number of primitives:             82
      Number of atomic orbitals:       160
      Number of basis functions:       138

      Integral cutoff                 1.00e-12
      Number of threads:                12

  Performing in-core PK
  Using 91996872 doubles for integral storage.
  We computed 946720 shell quartets total.
  Whereas there are 584821 unique shell quartets.
    61.88 percent of shell quartets recomputed by reordering.

  ==> DiskJK: Disk-Based J/K Matrices <==

    J tasked:                  Yes
    K tasked:                  Yes
    wK tasked:                  No
    Memory [MiB]:             2861
    Schwarz Cutoff:          1E-12

    OpenMP threads:             12

  Minimum eigenvalue in the overlap matrix is 3.3785251289E-04.
  Using Symmetric Orthogonalization.

  SCF Guess: Superposition of Atomic Densities via on-the-fly atomic UHF.

  ==> Iterations <==

                        Total Energy        Delta E     RMS |[F,P]|

   @UHF iter SAD:  -149.46101770969344   -1.49461e+02   0.00000e+00 
   @UHF iter   1:  -150.75317627854042   -1.29216e+00   6.69401e-03 DIIS
   @UHF iter   2:  -150.82980666543983   -7.66304e-02   4.23590e-03 DIIS
   @UHF iter   3:  -150.86340316167394   -3.35965e-02   6.79646e-04 DIIS
   @UHF iter   4:  -150.86592213736105   -2.51898e-03   1.85439e-04 DIIS
   @UHF iter   5:  -150.86612167720787   -1.99540e-04   7.81593e-05 DIIS
   @UHF iter   6:  -150.86616552260696   -4.38454e-05   2.84504e-05 DIIS
   @UHF iter   7:  -150.86617195135253   -6.42875e-06   9.82801e-06 DIIS
   @UHF iter   8:  -150.86617277497925   -8.23627e-07   4.51330e-06 DIIS
   @UHF iter   9:  -150.86617298259236   -2.07613e-07   1.70854e-06 DIIS
   @UHF iter  10:  -150.86617301558812   -3.29958e-08   4.24320e-07 DIIS
   @UHF iter  11:  -150.86617301724419   -1.65608e-09   9.25640e-08 DIIS
   @UHF iter  12:  -150.86617301729675   -5.25517e-11   2.28978e-08 DIIS
   @UHF iter  13:  -150.86617301730050   -3.75167e-12   8.49204e-09 DIIS
  Energy and wave function converged.


  ==> Post-Iterations <==

   @Spin Contamination Metric:   9.994378460E-03
   @S^2 Expected:                2.000000000E+00
   @S^2 Observed:                2.009994378E+00
   @S   Expected:                1.000000000E+00
   @S   Observed:                1.000000000E+00

    Orbital Energies [Eh]
    ---------------------

    Alpha Occupied:                                                       

       1A1   -20.735460     2A1   -20.567689     3A1    -1.450035  
       4A1    -1.354526     5A1    -0.748892     1B1    -0.737441  
       1B2    -0.718732     2B2    -0.636860     6A1    -0.581380  
       2B1    -0.511339  

    Alpha Virtual:                                                        

       7A1     0.036807     3B2     0.050264     8A1     0.118780  
       3B1     0.130444     9A1     0.156291     4B2     0.166009  
       4B1     0.190361     5B2     0.191248    10A1     0.193113  
       1A2     0.263483    11A1     0.264000     6B2     0.275726  
      12A1     0.291023     5B1     0.337311     7B2     0.395271  
      13A1     0.407074    14A1     0.454202     8B2     0.475669  
       9B2     0.630650     2A2     0.647399     6B1     0.653132  
      15A1     0.659403    16A1     0.687715    17A1     0.711775  
       3A2     0.723397    18A1     0.735709    10B2     0.767415  
       7B1     0.791116     8B1     0.844369    19A1     0.885968  
      11B2     0.889302     9B1     0.922649    12B2     0.945232  
      20A1     0.982021     4A2     0.986688    21A1     1.023084  
      10B1     1.032033    13B2     1.059889    22A1     1.084765  
      14B2     1.135932    23A1     1.151203     5A2     1.211790  
      11B1     1.226854    24A1     1.246004    15B2     1.247810  
      16B2     1.447189     6A2     1.511147    25A1     1.571019  
      12B1     1.578391    17B2     1.757467    26A1     1.811266  
      27A1     1.859186    18B2     1.946621    13B1     2.005638  
      28A1     2.036453    14B1     2.042130     7A2     2.076454  
      19B2     2.082696    29A1     2.094037    30A1     2.173976  
      15B1     2.178386     8A2     2.195614    31A1     2.215045  
      20B2     2.220839     9A2     2.376670    32A1     2.394267  
      16B1     2.438704    21B2     2.459241    33A1     2.470502  
      17B1     2.513285    22B2     2.518218    34A1     2.554452  
      18B1     2.732684    23B2     2.755004    35A1     2.756702  
      10A2     2.882792    36A1     2.894529    24B2     2.952256  
      25B2     3.686850    37A1     3.836876    11A2     4.034528  
      19B1     4.078315    20B1     4.109768    38A1     4.211328  
      26B2     4.236894    21B1     4.312271    27B2     4.334499  
      12A2     4.380552    22B1     4.447943    39A1     4.487438  
      40A1     4.567931    28B2     4.674111    41A1     4.753598  
      29B2     4.912121    13A2     5.153767    30B2     5.161738  
      31B2     5.268732    42A1     5.370240    23B1     5.517678  
      43A1     5.690028    44A1     6.236704    24B1     6.392289  
      32B2     6.401943    25B1     6.435461    14A2     6.452705  
      45A1     6.471648    33B2     6.531609    46A1     6.611549  
      34B2     6.729311    26B1     6.771802    47A1     6.879173  
      27B1     6.880666    15A2     6.895209    48A1     6.965606  
      49A1     6.991025    35B2     7.012704    28B1     7.170051  
      29B1     7.260260    16A2     7.309942    17A2     7.358110  
      36B2     7.372302    50A1     7.383712    51A1     7.598790  
      37B2     7.951691    52A1     7.988871    38B2     8.800884  
      53A1     9.940616    54A1    15.784485  

    Beta Occupied:                                                        

       1A1   -20.656556     2A1   -20.566045     3A1    -1.351391  
       4A1    -1.105911     1B2    -0.716527     5A1    -0.581185  
       2B2    -0.547767     1B1    -0.508928  

    Beta Virtual:                                                         

       6A1     0.037768     2B1     0.046062     3B2     0.050619  
       7A1     0.052448     8A1     0.142079     3B1     0.159747  
       4B2     0.167935     9A1     0.181388     5B2     0.193544  
      10A1     0.194810     4B1     0.226254     1A2     0.263772  
      11A1     0.267191     6B2     0.276017    12A1     0.299130  
       5B1     0.346164     7B2     0.397594    13A1     0.433905  
      14A1     0.459540     8B2     0.475828     9B2     0.630335  
       2A2     0.661717     6B1     0.672006    15A1     0.674238  
      16A1     0.711773    17A1     0.715223     3A2     0.723699  
      10B2     0.783504    18A1     0.788829     7B1     0.824443  
      19A1     0.895712    11B2     0.901630     8B1     0.920082  
       9B1     0.935884    12B2     0.950014     4A2     0.988627  
      20A1     0.988985    21A1     1.036318    13B2     1.060621  
      10B1     1.060773    22A1     1.111243    14B2     1.145276  
      23A1     1.208072     5A2     1.213006    15B2     1.248181  
      11B1     1.249241    24A1     1.256814    16B2     1.453596  
       6A2     1.511308    12B1     1.579222    25A1     1.590074  
      17B2     1.763004    26A1     1.816264    27A1     1.901993  
      18B2     1.949464    13B1     2.029816    19B2     2.097456  
      28A1     2.101063    14B1     2.111017    29A1     2.144581  
       7A2     2.147870     8A2     2.222505    30A1     2.233914  
      31A1     2.244183    15B1     2.260512    20B2     2.291364  
       9A2     2.385531    32A1     2.421666    16B1     2.467040  
      21B2     2.474095    33A1     2.493997    17B1     2.514439  
      22B2     2.526285    34A1     2.566934    18B1     2.733874  
      23B2     2.758480    35A1     2.770536    10A2     2.883260  
      36A1     2.903272    24B2     2.954701    25B2     3.687605  
      37A1     3.846549    11A2     4.034075    19B1     4.110313  
      20B1     4.228348    38A1     4.247830    26B2     4.255725  
      21B1     4.328439    27B2     4.358934    12A2     4.380172  
      22B1     4.452461    39A1     4.511958    40A1     4.661281  
      28B2     4.676717    41A1     4.756206    29B2     4.913984  
      13A2     5.153994    30B2     5.163190    31B2     5.270174  
      42A1     5.373308    23B1     5.518229    43A1     5.691676  
      44A1     6.241944    24B1     6.449011    32B2     6.459552  
      14A2     6.528773    33B2     6.534376    25B1     6.541693  
      45A1     6.547325    46A1     6.689707    26B1     6.774710  
      34B2     6.792941    47A1     6.965783    15A2     7.007888  
      48A1     7.017272    27B1     7.064802    49A1     7.118200  
      35B2     7.121461    28B1     7.172903    29B1     7.263811  
      16A2     7.311271    17A2     7.359451    36B2     7.373735  
      50A1     7.394837    51A1     7.605024    37B2     7.953364  
      52A1     7.992592    38B2     8.803148    53A1    10.011404  
      54A1    15.785618  

    Final Occupation by Irrep:
             A1    A2    B1    B2 
    DOCC [     5,    0,    1,    2 ]
    SOCC [     1,    0,    1,    0 ]

  @UHF Final Energy:  -150.86617301730050

   => Energetics <=

    Nuclear Repulsion Energy =             26.4731215084010714
    One-Electron Energy =                -260.6019251278314641
    Two-Electron Energy =                  83.2626306021299030
    Total Energy =                       -150.8661730173004685

  UHF NO Occupations:
  HONO-2 :    5 A1 1.9970600
  HONO-1 :    6 A1 1.0000000
  HONO-0 :    2 B1 1.0000000
  LUNO+0 :    7 A1 0.0029400
  LUNO+1 :    3 B2 0.0017572
  LUNO+2 :    8 A1 0.0002803
  LUNO+3 :    3 B1 0.0000175


Computation Completed


Properties will be evaluated at   0.000000,   0.000000,   0.000000 [a0]

Properties computed using the SCF density matrix

  Nuclear Dipole Moment: [e a0]
     X:    -0.0000      Y:     0.0000      Z:    -1.2033

  Electronic Dipole Moment: [e a0]
     X:     0.0000      Y:     0.0000      Z:     2.0233

  Dipole Moment: [e a0]
     X:    -0.0000      Y:     0.0000      Z:     0.8200     Total:     0.8200

  Dipole Moment: [D]
     X:    -0.0000      Y:     0.0000      Z:     2.0841     Total:     2.0841


*** tstop() called on c1-9.compute.lan at Wed Mar 10 09:13:00 2021
Module time:
	user time   =      51.12 seconds =       0.85 minutes
	system time =       3.09 seconds =       0.05 minutes
	total time  =          7 seconds =       0.12 minutes
Total time:
	user time   =      51.12 seconds =       0.85 minutes
	system time =       3.09 seconds =       0.05 minutes
	total time  =          7 seconds =       0.12 minutes
 MINTS: Wrapper to libmints.
   by Justin Turney

   Calculation information:
      Number of threads:                12
      Number of atoms:                   4
      Number of AO shells:              46
      Number of SO shells:              37
      Number of primitives:             82
      Number of atomic orbitals:       160
      Number of basis functions:       138

      Number of irreps:                  4
      Integral cutoff                 0.00e+00
      Number of functions per irrep: [  54   17   29   38 ]

 OEINTS: Overlap, kinetic, potential, dipole, and quadrupole integrals
         stored in file 35.

      Computing two-electron integrals...done
      Computed 11516434 non-zero two-electron integrals.
        Stored in file 33.


*** tstart() called on c1-9.compute.lan
*** at Wed Mar 10 09:13:03 2021


	Wfn Parameters:
	--------------------
	Wavefunction         = CCSD_T
	Number of irreps     = 4
	Number of MOs        = 138
	Number of active MOs = 136
	AO-Basis             = NONE
	Semicanonical        = false
	Reference            = UHF
	Print Level          = 1

	IRREP	# MOs	# FZDC	# DOCC	# SOCC	# VIRT	# FZVR
	-----	-----	------	------	------	------	------
	 A1	   54	    2	    3	    1	    48	    0
	 A2	   17	    0	    0	    0	    17	    0
	 B1	   29	    0	    1	    1	    27	    0
	 B2	   38	    0	    2	    0	    36	    0
	Transforming integrals...
	IWL integrals will be deleted.
	(OO|OO)...
	Presorting SO-basis two-electron integrals.
	Sorting File: SO Ints (nn|nn) nbuckets = 1
	Transforming the one-electron integrals and constructing Fock matrices
	Starting AA/AB first half-transformation.
	Sorting AA/AB half-transformed integrals.
	Starting BB first half-transformation.
	Sorting BB half-transformed integrals.
	First half integral transformation complete.
	Starting AA second half-transformation.
	Starting AB second half-transformation.
	Starting BB second half-transformation.
	Two-electron integral transformation complete.
	(OO|OV)...
	Starting AA second half-transformation.
	Starting AB second half-transformation.
	Starting BB second half-transformation.
	Two-electron integral transformation complete.
	(OO|VV)...
	Starting AA second half-transformation.
	Starting AB second half-transformation.
	Starting BB second half-transformation.
	Two-electron integral transformation complete.
	(OV|OO)...
	Starting AA/AB first half-transformation.
	Sorting AA/AB half-transformed integrals.
	Starting BB first half-transformation.
	Sorting BB half-transformed integrals.
	First half integral transformation complete.
	Starting AA second half-transformation.
	Starting AB second half-transformation.
	Starting BB second half-transformation.
	Two-electron integral transformation complete.
	(OV|OV)...
	Starting AA second half-transformation.
	Starting AB second half-transformation.
	Starting BB second half-transformation.
	Two-electron integral transformation complete.
	(OV|VV)...
	Starting AA second half-transformation.
	Starting AB second half-transformation.
	Starting BB second half-transformation.
	Two-electron integral transformation complete.
	(VV|OO)...
	Starting AA/AB first half-transformation.
	Sorting AA/AB half-transformed integrals.
	Starting BB first half-transformation.
	Sorting BB half-transformed integrals.
	First half integral transformation complete.
	Starting AA second half-transformation.
	Starting AB second half-transformation.
	Starting BB second half-transformation.
	Two-electron integral transformation complete.
	(VV|OV)...
	Starting AA second half-transformation.
	Starting AB second half-transformation.
	Starting BB second half-transformation.
	Two-electron integral transformation complete.
	(VV|VV)...
	Starting AA second half-transformation.
	Starting AB second half-transformation.
	Starting BB second half-transformation.
	Two-electron integral transformation complete.
	Frozen core energy     =   -127.23398759085569

	Size of irrep 0 of <AB|CD> integrals:      5.040 (MW) /     40.320 (MB)
	Size of irrep 1 of <AB|CD> integrals:      3.197 (MW) /     25.576 (MB)
	Size of irrep 2 of <AB|CD> integrals:      3.640 (MW) /     29.124 (MB)
	Size of irrep 3 of <AB|CD> integrals:      4.783 (MW) /     38.264 (MB)
	Total:                                    16.660 (MW) /    133.283 (MB)

	Size of irrep 0 of <ab|cd> integrals:      5.382 (MW) /     43.059 (MB)
	Size of irrep 1 of <ab|cd> integrals:      3.389 (MW) /     27.114 (MB)
	Size of irrep 2 of <ab|cd> integrals:      3.936 (MW) /     31.490 (MB)
	Size of irrep 3 of <ab|cd> integrals:      5.018 (MW) /     40.141 (MB)
	Total:                                    17.726 (MW) /    141.804 (MB)

	Size of irrep 0 of <Ab|Cd> integrals:     22.024 (MW) /    176.194 (MB)
	Size of irrep 1 of <Ab|Cd> integrals:     13.170 (MW) /    105.357 (MB)
	Size of irrep 2 of <Ab|Cd> integrals:     15.140 (MW) /    121.119 (MB)
	Size of irrep 3 of <Ab|Cd> integrals:     19.598 (MW) /    156.787 (MB)
	Total:                                    69.932 (MW) /    559.457 (MB)

	Size of irrep 0 of <IA|BC> integrals:      1.469 (MW) /     11.748 (MB)
	Size of irrep 1 of <IA|BC> integrals:      0.694 (MW) /      5.550 (MB)
	Size of irrep 2 of <IA|BC> integrals:      0.908 (MW) /      7.266 (MB)
	Size of irrep 3 of <IA|BC> integrals:      1.198 (MW) /      9.588 (MB)
	Total:                                     4.269 (MW) /     34.152 (MB)

	Size of irrep 0 of <ia|bc> integrals:      1.178 (MW) /      9.426 (MB)
	Size of irrep 1 of <ia|bc> integrals:      0.527 (MW) /      4.212 (MB)
	Size of irrep 2 of <ia|bc> integrals:      0.663 (MW) /      5.301 (MB)
	Size of irrep 3 of <ia|bc> integrals:      0.999 (MW) /      7.992 (MB)
	Total:                                     3.366 (MW) /     26.931 (MB)

	Size of irrep 0 of <Ia|Bc> integrals:      1.521 (MW) /     12.164 (MB)
	Size of irrep 1 of <Ia|Bc> integrals:      0.711 (MW) /      5.690 (MB)
	Size of irrep 2 of <Ia|Bc> integrals:      0.949 (MW) /      7.595 (MB)
	Size of irrep 3 of <Ia|Bc> integrals:      1.222 (MW) /      9.775 (MB)
	Total:                                     4.403 (MW) /     35.225 (MB)

	Size of irrep 0 of <iA|bC> integrals:      1.140 (MW) /      9.123 (MB)
	Size of irrep 1 of <iA|bC> integrals:      0.512 (MW) /      4.094 (MB)
	Size of irrep 2 of <iA|bC> integrals:      0.634 (MW) /      5.074 (MB)
	Size of irrep 3 of <iA|bC> integrals:      0.978 (MW) /      7.827 (MB)
	Total:                                     3.265 (MW) /     26.118 (MB)

	Size of irrep 0 of tIjAb amplitudes:       0.084 (MW) /      0.676 (MB)
	Size of irrep 1 of tIjAb amplitudes:       0.022 (MW) /      0.174 (MB)
	Size of irrep 2 of tIjAb amplitudes:       0.039 (MW) /      0.311 (MB)
	Size of irrep 3 of tIjAb amplitudes:       0.062 (MW) /      0.496 (MB)
	Total:                                     0.207 (MW) /      1.657 (MB)

	Nuclear Rep. energy          =     26.47312150840107
	SCF energy                   =   -150.86617301730050
	One-electron energy          =    -88.65969936600470
	Two-electron (AA) energy     =     10.86087660124912
	Two-electron (BB) energy     =      5.69950481602643
	Two-electron (AB) energy     =     21.99401101387907
	Two-electron energy          =     38.55439243115462
	Reference energy             =   -150.86617301730467

*** tstop() called on c1-9.compute.lan at Wed Mar 10 09:13:33 2021
Module time:
	user time   =     129.79 seconds =       2.16 minutes
	system time =      20.27 seconds =       0.34 minutes
	total time  =         30 seconds =       0.50 minutes
Total time:
	user time   =     185.89 seconds =       3.10 minutes
	system time =      23.93 seconds =       0.40 minutes
	total time  =         40 seconds =       0.67 minutes
            **************************
            *                        *
            *        CCENERGY        *
            *                        *
            **************************

    Nuclear Rep. energy (wfn)     =   26.473121508401071
    SCF energy          (wfn)     = -150.866173017300497
    Reference energy    (file100) = -150.866173017304675

    Input parameters:
    -----------------
    Wave function   =     CCSD_T
    Reference wfn   =     UHF
    Brueckner       =     No
    Memory (Mbytes) =     4000.0
    Maxiter         =     50
    R_Convergence   =     1.0e-10
    E_Convergence   =     1.0e-10
    Restart         =     Yes
    DIIS            =     Yes
    AO Basis        =     NONE
    ABCD            =     NEW
    Cache Level     =     2
    Cache Type      =     LRU
    Print Level     =     1
    Num. of threads =     12
    # Amps to Print =     10
    Print MP2 Amps? =     No
    Analyze T2 Amps =     No
    Print Pair Ener =     No
    Local CC        =     No
    SCS-MP2         =     False
    SCSN-MP2        =     False
    SCS-CCSD        =     False

MP2 correlation energy -0.4190602924290702
                Solving CC Amplitude Equations
                ------------------------------
  Iter             Energy              RMS        T1Diag      D1Diag    New D1Diag    D2Diag
  ----     ---------------------    ---------   ----------  ----------  ----------   --------
     0        -0.419060292429070    0.000e+00    0.000000    0.000000    0.000000    0.000000
     1        -0.429578505398065    6.122e-02    0.012131    0.000000    0.000000    0.000000
     2        -0.437937939147847    1.863e-02    0.012853    0.000000    0.000000    0.000000
     3        -0.440278626989067    1.245e-02    0.015718    0.000000    0.000000    0.000000
     4        -0.440231520722847    4.810e-03    0.017038    0.000000    0.000000    0.000000
     5        -0.440193777845592    3.298e-03    0.017957    0.000000    0.000000    0.000000
     6        -0.440267727173926    1.278e-03    0.018399    0.000000    0.000000    0.000000
     7        -0.440278380281352    5.932e-04    0.018509    0.000000    0.000000    0.000000
     8        -0.440277330900903    2.266e-04    0.018561    0.000000    0.000000    0.000000
     9        -0.440281041317521    1.223e-04    0.018568    0.000000    0.000000    0.000000
    10        -0.440275313994892    6.337e-05    0.018582    0.000000    0.000000    0.000000
    11        -0.440275935371427    3.047e-05    0.018582    0.000000    0.000000    0.000000
    12        -0.440275745876633    1.199e-05    0.018584    0.000000    0.000000    0.000000
    13        -0.440275943769964    6.322e-06    0.018583    0.000000    0.000000    0.000000
    14        -0.440276165841945    2.529e-06    0.018583    0.000000    0.000000    0.000000
    15        -0.440276167431714    1.083e-06    0.018583    0.000000    0.000000    0.000000
    16        -0.440276173203567    4.749e-07    0.018583    0.000000    0.000000    0.000000
    17        -0.440276174860096    1.622e-07    0.018583    0.000000    0.000000    0.000000
    18        -0.440276172803428    8.113e-08    0.018583    0.000000    0.000000    0.000000
    19        -0.440276172689507    2.416e-08    0.018583    0.000000    0.000000    0.000000
    20        -0.440276172853992    1.155e-08    0.018583    0.000000    0.000000    0.000000
    21        -0.440276172723040    5.057e-09    0.018583    0.000000    0.000000    0.000000
    22        -0.440276172728805    1.808e-09    0.018583    0.000000    0.000000    0.000000
    23        -0.440276172744756    6.619e-10    0.018583    0.000000    0.000000    0.000000
    24        -0.440276172747698    2.133e-10    0.018583    0.000000    0.000000    0.000000
    25        -0.440276172748242    1.130e-10    0.018583    0.000000    0.000000    0.000000
    26        -0.440276172749568    4.372e-11    0.018583    0.000000    0.000000    0.000000

    Iterations converged.


    Largest TIA Amplitudes:
              5  67        -0.0142168684
              5  65        -0.0122479170
              4  65        -0.0089001851
              2   6        -0.0087810331
              7  94         0.0083179696
              7  93        -0.0077167064
              2   2         0.0068149606
              5  66        -0.0068055573
              2   1        -0.0056953841
              3   1         0.0056554923

    Largest Tia Amplitudes:
              2   1         0.0345427282
              3  66        -0.0262485197
              2   2         0.0165521919
              2   3        -0.0157078191
              3  69        -0.0120992325
              3  68        -0.0112822918
              5  96         0.0071772595
              2   6        -0.0060550481
              1  23         0.0055780951
              3  67        -0.0054537341

    Largest TIJAB Amplitudes:
      7   4  54  22        -0.0112169714
      7   4 100  70         0.0093314341
      6   3  98   9        -0.0085732843
      7   2 109  22        -0.0085253112
      7   4 100  69         0.0080959305
      7   2  99  11        -0.0077174563
      4   2  69  11         0.0076525476
      6   5  50  10        -0.0075769546
      6   5  97  72        -0.0074197312
      6   5  97  67        -0.0072140597

    Largest Tijab Amplitudes:
      4   2 100  10        -0.0089340620
      5   1  66  50         0.0087462850
      5   1 101   1         0.0080706548
      5   1 111   1        -0.0079106462
      5   1  66  55        -0.0077438425
      4   3  99  74        -0.0072952066
      4   3  99  69        -0.0071703287
      4   3  51  11        -0.0067756536
      5   2  96   1         0.0067307650
      4   3  99  72        -0.0064984526

    Largest TIjAb Amplitudes:
      7   1  54  66         0.0177390596
      5   3  72  74        -0.0170876457
      7   5 100 102        -0.0166774280
      7   1 109   1        -0.0166357812
      6   4  98 100        -0.0158981783
      6   4  97  99        -0.0157340494
      4   1  21  66         0.0152976800
      7   1  49  66        -0.0138598337
      6   4 102 104        -0.0133997069
      7   1  99   1         0.0133788449

    SCF energy       (wfn)                    = -150.866173017300497
    Reference energy (file100)                = -150.866173017304675

    Opposite-spin MP2 correlation energy      =   -0.316013018502729
    Same-spin MP2 correlation energy          =   -0.103047273926341
    MP2 correlation energy                    =   -0.419060292429070
      * MP2 total energy                      = -151.285233309733741

    Opposite-spin CCSD correlation energy     =   -0.343755665542270
    Same-spin CCSD correlation energy         =   -0.096520507207298
    CCSD correlation energy                   =   -0.440276172749568
      * CCSD total energy                     = -151.306449190054252

            **************************
            *                        *
            *        CCTRIPLES       *
            *                        *
            **************************


    Wave function   =    CCSD_T
    Reference wfn   =      UHF

    Nuclear Rep. energy (wfn)                =   26.473121508401071
    SCF energy          (wfn)                = -150.866173017300497
    Reference energy    (file100)            = -150.866173017304675
    CCSD energy         (file100)            =   -0.440276172749568
    Total CCSD energy   (file100)            = -151.306449190054252

    Number of ijk index combinations:
    Spin Case AAA:                                  56
    Spin Case BBB:                                  20
    Spin Case AAB:                                 168
    Spin Case ABB:                                 120
    AAA (T) energy                             =   -0.000412223724238
    BBB (T) energy                             =   -0.000241244213774
    AAB (T) energy                             =   -0.006945670723738
    ABB (T) energy                             =   -0.005289203652823
    (T) energy                                   =   -0.012888342314574
      * CCSD(T) total energy                     = -151.319337532368820

Stephenergy -151.31933753236882
    Psi4 stopped on: Wednesday, 10 March 2021 09:14AM
    Psi4 wall time for execution: 0:01:55.11

*** Psi4 exiting successfully. Buy a developer a beer!
