
    -----------------------------------------------------------------------
          Psi4: An Open-Source Ab Initio Electronic Structure Package
                               Psi4 1.3.2 release

                         Git: Rev {HEAD} ecbda83 


    R. M. Parrish, L. A. Burns, D. G. A. Smith, A. C. Simmonett,
    A. E. DePrince III, E. G. Hohenstein, U. Bozkaya, A. Yu. Sokolov,
    R. Di Remigio, R. M. Richard, J. F. Gonthier, A. M. James,
    H. R. McAlexander, A. Kumar, M. Saitow, X. Wang, B. P. Pritchard,
    P. Verma, H. F. Schaefer III, K. Patkowski, R. A. King, E. F. Valeev,
    F. A. Evangelista, J. M. Turney, T. D. Crawford, and C. D. Sherrill,
    J. Chem. Theory Comput. 13(7) pp 3185--3197 (2017).
    (doi: 10.1021/acs.jctc.7b00174)


                         Additional Contributions by
    P. Kraus, H. Kruse, M. H. Lechner, M. C. Schieber, R. A. Shaw,
    A. Alenaizan, R. Galvelis, Z. L. Glick, S. Lehtola, and J. P. Misiewicz

    -----------------------------------------------------------------------


    Psi4 started on: Wednesday, 10 March 2021 09:49AM

    Process ID: 65447
    Host:       c4-4.compute.lan
    PSIDATADIR: /apps/gb/PSI4/1.3.2/share/psi4
    Memory:     500.0 MiB
    Threads:    12
    
  ==> Input File <==

--------------------------------------------------------------------------
memory 4 GB

molecule  {
0 3
O    0.000000000000    0.000000000000   -1.647422885898
H    0.000000000000   -0.754286053900   -1.052757112916
H   -0.000000000000    0.754286053900   -1.052757112916
O    0.000000000000    0.000000000000    1.780089423543
}
set {
basis aug-cc-pvtz
reference uhf
e_convergence 10
scf_type pk
freeze_core true
}

set ccenergy {
e_convergence 10
r_convergence 10
}

e = energy('ccsd(t)')

print_out('Stephenergy {}'.format(e))

--------------------------------------------------------------------------

  Memory set to   3.725 GiB by Python driver.

*** tstart() called on c4-4.compute.lan
*** at Wed Mar 10 09:49:30 2021

   => Loading Basis Set <=

    Name: AUG-CC-PVTZ
    Role: ORBITAL
    Keyword: BASIS
    atoms 1, 4 entry O          line   327 file /apps/gb/PSI4/1.3.2/share/psi4/basis/aug-cc-pvtz.gbs 
    atoms 2-3  entry H          line    36 file /apps/gb/PSI4/1.3.2/share/psi4/basis/aug-cc-pvtz.gbs 


         ---------------------------------------------------------
                                   SCF
               by Justin Turney, Rob Parrish, Andy Simmonett
                          and Daniel G. A. Smith
                              UHF Reference
                       12 Threads,   3814 MiB Core
         ---------------------------------------------------------

  ==> Geometry <==

    Molecular point group: c2v
    Full point group: C2v

    Geometry (in Angstrom), charge = 0, multiplicity = 3:

       Center              X                  Y                   Z               Mass       
    ------------   -----------------  -----------------  -----------------  -----------------
         O            0.000000000000     0.000000000000    -1.647422885898    15.994914619570
         H            0.000000000000    -0.754286053900    -1.052757112916     1.007825032230
         H           -0.000000000000     0.754286053900    -1.052757112916     1.007825032230
         O            0.000000000000     0.000000000000     1.780089423543    15.994914619570

  Running in c2v symmetry.

  Rotational constants: A =     14.69972  B =      0.17500  C =      0.17294 [cm^-1]
  Rotational constants: A = 440686.66227  B =   5246.46372  C =   5184.73836 [MHz]
  Nuclear repulsion =   21.934946614139101

  Charge       = 0
  Multiplicity = 3
  Electrons    = 18
  Nalpha       = 10
  Nbeta        = 8

  ==> Algorithm <==

  SCF Algorithm Type is PK.
  DIIS enabled.
  MOM disabled.
  Fractional occupation disabled.
  Guess Type is SAD.
  Energy threshold   = 1.00e-10
  Density threshold  = 1.00e-08
  Integral threshold = 0.00e+00

  ==> Primary Basis <==

  Basis Set: AUG-CC-PVTZ
    Blend: AUG-CC-PVTZ
    Number of shells: 46
    Number of basis function: 138
    Number of Cartesian functions: 160
    Spherical Harmonics?: true
    Max angular momentum: 3

  ==> Pre-Iterations <==

   -------------------------------------------------------
    Irrep   Nso     Nmo     Nalpha   Nbeta   Ndocc  Nsocc
   -------------------------------------------------------
     A1        54      54       0       0       0       0
     A2        17      17       0       0       0       0
     B1        29      29       0       0       0       0
     B2        38      38       0       0       0       0
   -------------------------------------------------------
    Total     138     138      10       8       8       2
   -------------------------------------------------------

  ==> Integral Setup <==

  Using in-core PK algorithm.
   Calculation information:
      Number of atoms:                   4
      Number of AO shells:              46
      Number of primitives:             82
      Number of atomic orbitals:       160
      Number of basis functions:       138

      Integral cutoff                 1.00e-12
      Number of threads:                12

  Performing in-core PK
  Using 91996872 doubles for integral storage.
  We computed 904928 shell quartets total.
  Whereas there are 584821 unique shell quartets.
    54.74 percent of shell quartets recomputed by reordering.

  ==> DiskJK: Disk-Based J/K Matrices <==

    J tasked:                  Yes
    K tasked:                  Yes
    wK tasked:                  No
    Memory [MiB]:             2861
    Schwarz Cutoff:          1E-12

    OpenMP threads:             12

  Minimum eigenvalue in the overlap matrix is 3.6993140739E-04.
  Using Symmetric Orthogonalization.

  SCF Guess: Superposition of Atomic Densities via on-the-fly atomic UHF.

  ==> Iterations <==

                        Total Energy        Delta E     RMS |[F,P]|

   @UHF iter SAD:  -149.38398961455223   -1.49384e+02   0.00000e+00 
   @UHF iter   1:  -150.76850137173531   -1.38451e+00   6.87499e-03 DIIS
   @UHF iter   2:  -150.83894932095382   -7.04479e-02   4.44540e-03 DIIS
   @UHF iter   3:  -150.87241540412310   -3.34661e-02   5.33392e-04 DIIS
   @UHF iter   4:  -150.87352690894610   -1.11150e-03   1.77332e-04 DIIS
   @UHF iter   5:  -150.87365518855123   -1.28280e-04   7.05017e-05 DIIS
   @UHF iter   6:  -150.87368867946242   -3.34909e-05   2.01590e-05 DIIS
   @UHF iter   7:  -150.87369159234734   -2.91288e-06   4.82096e-06 DIIS
   @UHF iter   8:  -150.87369177408942   -1.81742e-07   1.20306e-06 DIIS
   @UHF iter   9:  -150.87369178486281   -1.07734e-08   2.20203e-07 DIIS
   @UHF iter  10:  -150.87369178517741   -3.14600e-10   6.54773e-08 DIIS
   @UHF iter  11:  -150.87369178521197   -3.45608e-11   3.30438e-08 DIIS
   @UHF iter  12:  -150.87369178522474   -1.27613e-11   1.03235e-08 DIIS
   @UHF iter  13:  -150.87369178522587   -1.13687e-12   3.54698e-09 DIIS
  Energy and wave function converged.


  ==> Post-Iterations <==

   @Spin Contamination Metric:   9.220321232E-03
   @S^2 Expected:                2.000000000E+00
   @S^2 Observed:                2.009220321E+00
   @S   Expected:                1.000000000E+00
   @S   Observed:                1.000000000E+00

    Orbital Energies [Eh]
    ---------------------

    Alpha Occupied:                                                       

       1A1   -20.728871     2A1   -20.562774     3A1    -1.437852  
       4A1    -1.347463     1B2    -0.729266     1B1    -0.728880  
       2B2    -0.709019     5A1    -0.632166     6A1    -0.580117  
       2B1    -0.505416  

    Alpha Virtual:                                                        

       7A1     0.035496     3B2     0.048536     3B1     0.132106  
       8A1     0.134751     9A1     0.148063     4B2     0.158033  
       4B1     0.181073     5B2     0.184924    10A1     0.189278  
      11A1     0.250201     6B2     0.257649     1A2     0.266028  
      12A1     0.273404     5B1     0.319834    13A1     0.367654  
       7B2     0.382378    14A1     0.454294     8B2     0.471943  
       2A2     0.609120     9B2     0.615929    15A1     0.618132  
      16A1     0.619514     6B1     0.640449    17A1     0.717697  
       3A2     0.730917    10B2     0.735671     7B1     0.741995  
      18A1     0.800578    19A1     0.838312     8B1     0.841053  
      11B2     0.854194     9B1     0.915184    20A1     0.925316  
       4A2     0.934085    12B2     0.941917    21A1     0.958698  
      10B1     0.960440    13B2     0.962066    22A1     1.049027  
      14B2     1.054556    11B1     1.123043     5A2     1.185824  
      23A1     1.186376    15B2     1.254819    24A1     1.262040  
      16B2     1.274667    25A1     1.346025     6A2     1.511976  
      12B1     1.592819    26A1     1.631220    27A1     1.827531  
      17B2     1.829404    18B2     1.973033    13B1     1.978657  
      19B2     1.990279    28A1     2.005464     7A2     2.011056  
      14B1     2.026101    29A1     2.036356     8A2     2.039629  
      20B2     2.081095    30A1     2.086050    15B1     2.119488  
      31A1     2.145802    21B2     2.260100    16B1     2.278817  
       9A2     2.329600    32A1     2.336522    33A1     2.402373  
      34A1     2.488108    22B2     2.491721    17B1     2.505084  
      35A1     2.575037    23B2     2.688858    18B1     2.718474  
      36A1     2.820515    10A2     2.889357    24B2     2.902502  
      25B2     3.668413    37A1     3.755543    11A2     4.031386  
      19B1     4.050752    26B2     4.084388    20B1     4.102674  
      38A1     4.148928    27B2     4.278542    21B1     4.285550  
      39A1     4.367753    12A2     4.383704    40A1     4.406163  
      22B1     4.417271    28B2     4.530374    41A1     4.749845  
      29B2     4.854945    13A2     5.153150    30B2     5.164695  
      31B2     5.254938    42A1     5.373582    23B1     5.530750  
      43A1     5.678345    44A1     6.200243    24B1     6.315230  
      32B2     6.316057    14A2     6.370009    45A1     6.375198  
      25B1     6.402024    33B2     6.449903    46A1     6.479706  
      34B2     6.528177    26B1     6.737497    15A2     6.819174  
      47A1     6.820608    27B1     6.927244    48A1     6.930956  
      35B2     6.956762    49A1     7.033047    28B1     7.137159  
      29B1     7.261503    16A2     7.320260    36B2     7.347841  
      50A1     7.356773    17A2     7.358931    51A1     7.550946  
      52A1     7.903214    37B2     7.939735    53A1     8.528992  
      38B2     8.817757    54A1    15.763289  

    Beta Occupied:                                                        

       1A1   -20.650306     2A1   -20.562812     3A1    -1.347635  
       4A1    -1.095552     1B2    -0.709162     5A1    -0.584186  
       6A1    -0.538469     1B1    -0.505407  

    Beta Virtual:                                                         

       2B2     0.035429     7A1     0.036613     2B1     0.049955  
       3B2     0.069586     8A1     0.140914     9A1     0.150642  
       3B1     0.160358     4B2     0.180853    10A1     0.189596  
       5B2     0.221931     4B1     0.225326    11A1     0.259188  
       6B2     0.263214     1A2     0.266340    12A1     0.274856  
       5B1     0.320474    13A1     0.371036     7B2     0.387415  
      14A1     0.455417     8B2     0.472463     9B2     0.618381  
      15A1     0.620508     2A2     0.641349    16A1     0.651301  
       6B1     0.652549    17A1     0.719039     3A2     0.732348  
       7B1     0.743986    10B2     0.747079    18A1     0.809049  
      19A1     0.851411     8B1     0.912187     9B1     0.930446  
      20A1     0.930669     4A2     0.935475    11B2     0.940312  
      12B2     0.944488    21A1     0.959623    13B2     1.009781  
      10B1     1.024930    22A1     1.049602    14B2     1.057220  
      11B1     1.128032     5A2     1.186523    23A1     1.190474  
      15B2     1.268373    16B2     1.277837    24A1     1.280607  
      25A1     1.403891     6A2     1.512081    12B1     1.592920  
      26A1     1.643697    27A1     1.828643    17B2     1.830631  
      18B2     1.980801    13B1     2.016757    19B2     2.021470  
      28A1     2.030772     7A2     2.041392    14B1     2.046291  
      29A1     2.099923    20B2     2.124819    30A1     2.155347  
       8A2     2.182399    15B1     2.188831    31A1     2.195165  
      16B1     2.283038    21B2     2.306145     9A2     2.332521  
      32A1     2.357229    33A1     2.413392    34A1     2.492301  
      22B2     2.496333    17B1     2.509733    35A1     2.578052  
      23B2     2.689021    18B1     2.718562    36A1     2.820820  
      10A2     2.889379    24B2     2.904520    25B2     3.668447  
      37A1     3.755683    11A2     4.031472    19B1     4.102060  
      38A1     4.163822    20B1     4.223528    26B2     4.241216  
      21B1     4.285573    27B2     4.291942    12A2     4.383750  
      39A1     4.392432    40A1     4.414108    22B1     4.417452  
      28B2     4.530574    41A1     4.749985    29B2     4.855033  
      13A2     5.153167    30B2     5.164701    31B2     5.254960  
      42A1     5.374030    23B1     5.530755    43A1     5.678676  
      44A1     6.201913    24B1     6.424079    32B2     6.424764  
      14A2     6.446671    45A1     6.450259    25B1     6.457333  
      33B2     6.494792    46A1     6.528534    34B2     6.539932  
      26B1     6.743874    47A1     6.930981    15A2     7.008200  
      48A1     7.010012    27B1     7.034679    35B2     7.065880  
      49A1     7.114018    28B1     7.137439    29B1     7.261460  
      16A2     7.320306    36B2     7.349847    50A1     7.357443  
      17A2     7.358985    51A1     7.551644    52A1     7.903445  
      37B2     7.939719    53A1     8.614133    38B2     8.817697  
      54A1    15.763283  

    Final Occupation by Irrep:
             A1    A2    B1    B2 
    DOCC [     6,    0,    1,    1 ]
    SOCC [     0,    0,    1,    1 ]

  @UHF Final Energy:  -150.87369178522587

   => Energetics <=

    Nuclear Repulsion Energy =             21.9349466141391005
    One-Electron Energy =                -251.6619253968251257
    Two-Electron Energy =                  78.8532869974601454
    Total Energy =                       -150.8736917852258728

  UHF NO Occupations:
  HONO-2 :    6 A1 1.9970744
  HONO-1 :    2 B2 1.0000000
  HONO-0 :    2 B1 1.0000000
  LUNO+0 :    7 A1 0.0029256
  LUNO+1 :    8 A1 0.0016872
  LUNO+2 :    9 A1 0.0000024
  LUNO+3 :   10 A1 0.0000004


Computation Completed


Properties will be evaluated at   0.000000,   0.000000,   0.000000 [a0]

Properties computed using the SCF density matrix

  Nuclear Dipole Moment: [e a0]
     X:     0.0000      Y:     0.0000      Z:    -1.9732

  Electronic Dipole Moment: [e a0]
     X:     0.0000      Y:     0.0000      Z:     2.8048

  Dipole Moment: [e a0]
     X:     0.0000      Y:     0.0000      Z:     0.8316     Total:     0.8316

  Dipole Moment: [D]
     X:     0.0000      Y:     0.0000      Z:     2.1137     Total:     2.1137


*** tstop() called on c4-4.compute.lan at Wed Mar 10 09:49:35 2021
Module time:
	user time   =      46.95 seconds =       0.78 minutes
	system time =       0.85 seconds =       0.01 minutes
	total time  =          5 seconds =       0.08 minutes
Total time:
	user time   =      46.95 seconds =       0.78 minutes
	system time =       0.85 seconds =       0.01 minutes
	total time  =          5 seconds =       0.08 minutes
 MINTS: Wrapper to libmints.
   by Justin Turney

   Calculation information:
      Number of threads:                12
      Number of atoms:                   4
      Number of AO shells:              46
      Number of SO shells:              37
      Number of primitives:             82
      Number of atomic orbitals:       160
      Number of basis functions:       138

      Number of irreps:                  4
      Integral cutoff                 0.00e+00
      Number of functions per irrep: [  54   17   29   38 ]

 OEINTS: Overlap, kinetic, potential, dipole, and quadrupole integrals
         stored in file 35.

      Computing two-electron integrals...done
      Computed 11532422 non-zero two-electron integrals.
        Stored in file 33.


*** tstart() called on c4-4.compute.lan
*** at Wed Mar 10 09:49:37 2021


	Wfn Parameters:
	--------------------
	Wavefunction         = CCSD_T
	Number of irreps     = 4
	Number of MOs        = 138
	Number of active MOs = 136
	AO-Basis             = NONE
	Semicanonical        = false
	Reference            = UHF
	Print Level          = 1

	IRREP	# MOs	# FZDC	# DOCC	# SOCC	# VIRT	# FZVR
	-----	-----	------	------	------	------	------
	 A1	   54	    2	    4	    0	    48	    0
	 A2	   17	    0	    0	    0	    17	    0
	 B1	   29	    0	    1	    1	    27	    0
	 B2	   38	    0	    1	    1	    36	    0
	Transforming integrals...
	IWL integrals will be deleted.
	(OO|OO)...
	Presorting SO-basis two-electron integrals.
	Sorting File: SO Ints (nn|nn) nbuckets = 1
	Transforming the one-electron integrals and constructing Fock matrices
	Starting AA/AB first half-transformation.
	Sorting AA/AB half-transformed integrals.
	Starting BB first half-transformation.
	Sorting BB half-transformed integrals.
	First half integral transformation complete.
	Starting AA second half-transformation.
	Starting AB second half-transformation.
	Starting BB second half-transformation.
	Two-electron integral transformation complete.
	(OO|OV)...
	Starting AA second half-transformation.
	Starting AB second half-transformation.
	Starting BB second half-transformation.
	Two-electron integral transformation complete.
	(OO|VV)...
	Starting AA second half-transformation.
	Starting AB second half-transformation.
	Starting BB second half-transformation.
	Two-electron integral transformation complete.
	(OV|OO)...
	Starting AA/AB first half-transformation.
	Sorting AA/AB half-transformed integrals.
	Starting BB first half-transformation.
	Sorting BB half-transformed integrals.
	First half integral transformation complete.
	Starting AA second half-transformation.
	Starting AB second half-transformation.
	Starting BB second half-transformation.
	Two-electron integral transformation complete.
	(OV|OV)...
	Starting AA second half-transformation.
	Starting AB second half-transformation.
	Starting BB second half-transformation.
	Two-electron integral transformation complete.
	(OV|VV)...
	Starting AA second half-transformation.
	Starting AB second half-transformation.
	Starting BB second half-transformation.
	Two-electron integral transformation complete.
	(VV|OO)...
	Starting AA/AB first half-transformation.
	Sorting AA/AB half-transformed integrals.
	Starting BB first half-transformation.
	Sorting BB half-transformed integrals.
	First half integral transformation complete.
	Starting AA second half-transformation.
	Starting AB second half-transformation.
	Starting BB second half-transformation.
	Two-electron integral transformation complete.
	(VV|OV)...
	Starting AA second half-transformation.
	Starting AB second half-transformation.
	Starting BB second half-transformation.
	Two-electron integral transformation complete.
	(VV|VV)...
	Starting AA second half-transformation.
	Starting AB second half-transformation.
	Starting BB second half-transformation.
	Two-electron integral transformation complete.
	Frozen core energy     =   -125.45973899358965

	Size of irrep 0 of <AB|CD> integrals:      5.040 (MW) /     40.320 (MB)
	Size of irrep 1 of <AB|CD> integrals:      3.197 (MW) /     25.576 (MB)
	Size of irrep 2 of <AB|CD> integrals:      3.640 (MW) /     29.124 (MB)
	Size of irrep 3 of <AB|CD> integrals:      4.783 (MW) /     38.264 (MB)
	Total:                                    16.660 (MW) /    133.283 (MB)

	Size of irrep 0 of <ab|cd> integrals:      5.327 (MW) /     42.615 (MB)
	Size of irrep 1 of <ab|cd> integrals:      3.430 (MW) /     27.439 (MB)
	Size of irrep 2 of <ab|cd> integrals:      3.893 (MW) /     31.142 (MB)
	Size of irrep 3 of <ab|cd> integrals:      5.072 (MW) /     40.572 (MB)
	Total:                                    17.721 (MW) /    141.768 (MB)

	Size of irrep 0 of <Ab|Cd> integrals:     21.912 (MW) /    175.294 (MB)
	Size of irrep 1 of <Ab|Cd> integrals:     13.242 (MW) /    105.939 (MB)
	Size of irrep 2 of <Ab|Cd> integrals:     15.062 (MW) /    120.497 (MB)
	Size of irrep 3 of <Ab|Cd> integrals:     19.705 (MW) /    157.638 (MB)
	Total:                                    69.921 (MW) /    559.368 (MB)

	Size of irrep 0 of <IA|BC> integrals:      1.469 (MW) /     11.748 (MB)
	Size of irrep 1 of <IA|BC> integrals:      0.694 (MW) /      5.550 (MB)
	Size of irrep 2 of <IA|BC> integrals:      0.908 (MW) /      7.266 (MB)
	Size of irrep 3 of <IA|BC> integrals:      1.198 (MW) /      9.588 (MB)
	Total:                                     4.269 (MW) /     34.152 (MB)

	Size of irrep 0 of <ia|bc> integrals:      1.220 (MW) /      9.758 (MB)
	Size of irrep 1 of <ia|bc> integrals:      0.493 (MW) /      3.941 (MB)
	Size of irrep 2 of <ia|bc> integrals:      0.698 (MW) /      5.588 (MB)
	Size of irrep 3 of <ia|bc> integrals:      0.959 (MW) /      7.675 (MB)
	Total:                                     3.370 (MW) /     26.961 (MB)

	Size of irrep 0 of <Ia|Bc> integrals:      1.507 (MW) /     12.058 (MB)
	Size of irrep 1 of <Ia|Bc> integrals:      0.721 (MW) /      5.764 (MB)
	Size of irrep 2 of <Ia|Bc> integrals:      0.939 (MW) /      7.514 (MB)
	Size of irrep 3 of <Ia|Bc> integrals:      1.234 (MW) /      9.872 (MB)
	Total:                                     4.401 (MW) /     35.208 (MB)

	Size of irrep 0 of <iA|bC> integrals:      1.194 (MW) /      9.549 (MB)
	Size of irrep 1 of <iA|bC> integrals:      0.477 (MW) /      3.814 (MB)
	Size of irrep 2 of <iA|bC> integrals:      0.671 (MW) /      5.371 (MB)
	Size of irrep 3 of <iA|bC> integrals:      0.928 (MW) /      7.422 (MB)
	Total:                                     3.270 (MW) /     26.156 (MB)

	Size of irrep 0 of tIjAb amplitudes:       0.094 (MW) /      0.749 (MB)
	Size of irrep 1 of tIjAb amplitudes:       0.015 (MW) /      0.116 (MB)
	Size of irrep 2 of tIjAb amplitudes:       0.047 (MW) /      0.373 (MB)
	Size of irrep 3 of tIjAb amplitudes:       0.053 (MW) /      0.426 (MB)
	Total:                                     0.208 (MW) /      1.664 (MB)

	Nuclear Rep. energy          =     21.93494661413910
	SCF energy                   =   -150.87369178522587
	One-electron energy          =    -83.24721143300245
	Two-electron (AA) energy     =      9.94566339648510
	Two-electron (BB) energy     =      5.29314349576802
	Two-electron (AB) energy     =     20.65950513497227
	Two-electron energy          =     35.89831202722540
	Reference energy             =   -150.87369178522761

*** tstop() called on c4-4.compute.lan at Wed Mar 10 09:49:56 2021
Module time:
	user time   =      49.41 seconds =       0.82 minutes
	system time =       9.75 seconds =       0.16 minutes
	total time  =         19 seconds =       0.32 minutes
Total time:
	user time   =     101.81 seconds =       1.70 minutes
	system time =      10.98 seconds =       0.18 minutes
	total time  =         26 seconds =       0.43 minutes
            **************************
            *                        *
            *        CCENERGY        *
            *                        *
            **************************

    Nuclear Rep. energy (wfn)     =   21.934946614139101
    SCF energy          (wfn)     = -150.873691785225873
    Reference energy    (file100) = -150.873691785227606

    Input parameters:
    -----------------
    Wave function   =     CCSD_T
    Reference wfn   =     UHF
    Brueckner       =     No
    Memory (Mbytes) =     4000.0
    Maxiter         =     50
    R_Convergence   =     1.0e-10
    E_Convergence   =     1.0e-10
    Restart         =     Yes
    DIIS            =     Yes
    AO Basis        =     NONE
    ABCD            =     NEW
    Cache Level     =     2
    Cache Type      =     LRU
    Print Level     =     1
    Num. of threads =     12
    # Amps to Print =     10
    Print MP2 Amps? =     No
    Analyze T2 Amps =     No
    Print Pair Ener =     No
    Local CC        =     No
    SCS-MP2         =     False
    SCSN-MP2        =     False
    SCS-CCSD        =     False

MP2 correlation energy -0.4156239257139437
                Solving CC Amplitude Equations
                ------------------------------
  Iter             Energy              RMS        T1Diag      D1Diag    New D1Diag    D2Diag
  ----     ---------------------    ---------   ----------  ----------  ----------   --------
     0        -0.415623925713944    0.000e+00    0.000000    0.000000    0.000000    0.000000
     1        -0.426507133896681    5.632e-02    0.010348    0.000000    0.000000    0.000000
     2        -0.434585412064481    1.676e-02    0.010851    0.000000    0.000000    0.000000
     3        -0.436679491277844    8.394e-03    0.012663    0.000000    0.000000    0.000000
     4        -0.436555627126018    2.490e-03    0.013006    0.000000    0.000000    0.000000
     5        -0.436543658320318    1.257e-03    0.013148    0.000000    0.000000    0.000000
     6        -0.436569127956593    4.978e-04    0.013161    0.000000    0.000000    0.000000
     7        -0.436573241880086    2.239e-04    0.013151    0.000000    0.000000    0.000000
     8        -0.436573986687675    6.809e-05    0.013145    0.000000    0.000000    0.000000
     9        -0.436575198134041    2.775e-05    0.013145    0.000000    0.000000    0.000000
    10        -0.436574030399386    1.048e-05    0.013145    0.000000    0.000000    0.000000
    11        -0.436574140060539    5.154e-06    0.013144    0.000000    0.000000    0.000000
    12        -0.436574101193662    2.505e-06    0.013145    0.000000    0.000000    0.000000
    13        -0.436574094322642    1.343e-06    0.013145    0.000000    0.000000    0.000000
    14        -0.436574120831179    6.329e-07    0.013145    0.000000    0.000000    0.000000
    15        -0.436574119457200    1.718e-07    0.013145    0.000000    0.000000    0.000000
    16        -0.436574119318247    1.048e-07    0.013145    0.000000    0.000000    0.000000
    17        -0.436574120105535    2.968e-08    0.013145    0.000000    0.000000    0.000000
    18        -0.436574119684190    1.370e-08    0.013145    0.000000    0.000000    0.000000
    19        -0.436574119446316    4.282e-09    0.013145    0.000000    0.000000    0.000000
    20        -0.436574119421925    1.827e-09    0.013145    0.000000    0.000000    0.000000
    21        -0.436574119408060    7.509e-10    0.013145    0.000000    0.000000    0.000000
    22        -0.436574119406827    3.060e-10    0.013145    0.000000    0.000000    0.000000
    23        -0.436574119409733    1.378e-10    0.013145    0.000000    0.000000    0.000000
    24        -0.436574119409057    7.201e-11    0.013145    0.000000    0.000000    0.000000

    Iterations converged.


    Largest TIA Amplitudes:
              5  67        -0.0136542183
              5  65        -0.0121210844
              2   2         0.0098453141
              5  66        -0.0087600451
              6  93        -0.0087354850
              4  65        -0.0083210167
              3   6        -0.0076689400
              3   1         0.0060504084
              2   6        -0.0057521197
              2   4        -0.0054182150

    Largest Tia Amplitudes:
              4  68        -0.0137225733
              4  66        -0.0133166892
              2   6        -0.0088460560
              4  65        -0.0078040444
              2   2         0.0065325032
              3   2        -0.0057999108
              2   1         0.0053638488
              5 109         0.0050750556
              1  11        -0.0050542842
              4  82         0.0042892635

    Largest TIJAB Amplitudes:
      6   4 100  70         0.0170971574
      4   2  70  12         0.0125085323
      6   2 100  12        -0.0124497908
      6   4  55  22        -0.0115130294
      7   5  50  10        -0.0089245513
      6   4 115  81         0.0086551915
      4   0  70  18         0.0086096567
      6   4 100  81        -0.0085932181
      6   0 100  18        -0.0085666318
      7   3  97   6        -0.0085582114

    Largest Tijab Amplitudes:
      5   4  50  10        -0.0087355865
      5   2  99   6        -0.0082521424
      3   1  78  65        -0.0078970996
      4   2  70  10         0.0075558752
      3   1  69  65        -0.0075048977
      5   2 100   8        -0.0074873257
      5   4  53  10        -0.0074746244
      5   4  99  68        -0.0074615110
      5   4  99  71        -0.0074355666
      5   4  99  74        -0.0070968600

    Largest TIjAb Amplitudes:
      7   5  97  99        -0.0195512457
      2   3  12  12         0.0174125666
      4   3  70  12        -0.0169618310
      6   3 100  12         0.0168060734
      6   1  55  65         0.0166546518
      4   1  22  65         0.0166296771
      2   1  77  65         0.0165149534
      4   1  70  18        -0.0158397897
      6   1 100  18         0.0157262557
      6   1  22  94         0.0151470967

    SCF energy       (wfn)                    = -150.873691785225873
    Reference energy (file100)                = -150.873691785227606

    Opposite-spin MP2 correlation energy      =   -0.314068251630404
    Same-spin MP2 correlation energy          =   -0.101555674083540
    MP2 correlation energy                    =   -0.415623925713944
      * MP2 total energy                      = -151.289315710941537

    Opposite-spin CCSD correlation energy     =   -0.341737703872328
    Same-spin CCSD correlation energy         =   -0.094836415536729
    CCSD correlation energy                   =   -0.436574119409057
      * CCSD total energy                     = -151.310265904636651

            **************************
            *                        *
            *        CCTRIPLES       *
            *                        *
            **************************


    Wave function   =    CCSD_T
    Reference wfn   =      UHF

    Nuclear Rep. energy (wfn)                =   21.934946614139101
    SCF energy          (wfn)                = -150.873691785225873
    Reference energy    (file100)            = -150.873691785227606
    CCSD energy         (file100)            =   -0.436574119409057
    Total CCSD energy   (file100)            = -151.310265904636651

    Number of ijk index combinations:
    Spin Case AAA:                                  56
    Spin Case BBB:                                  20
    Spin Case AAB:                                 168
    Spin Case ABB:                                 120
    AAA (T) energy                             =   -0.000392454002603
    BBB (T) energy                             =   -0.000197904254877
    AAB (T) energy                             =   -0.006672345511086
    ABB (T) energy                             =   -0.004943405764648
    (T) energy                                   =   -0.012206109533213
      * CCSD(T) total energy                     = -151.322472014169875

Stephenergy -151.32247201416988
    Psi4 stopped on: Wednesday, 10 March 2021 09:50AM
    Psi4 wall time for execution: 0:01:22.67

*** Psi4 exiting successfully. Buy a developer a beer!
