
    -----------------------------------------------------------------------
          Psi4: An Open-Source Ab Initio Electronic Structure Package
                               Psi4 1.3.2 release

                         Git: Rev {HEAD} ecbda83 


    R. M. Parrish, L. A. Burns, D. G. A. Smith, A. C. Simmonett,
    A. E. DePrince III, E. G. Hohenstein, U. Bozkaya, A. Yu. Sokolov,
    R. Di Remigio, R. M. Richard, J. F. Gonthier, A. M. James,
    H. R. McAlexander, A. Kumar, M. Saitow, X. Wang, B. P. Pritchard,
    P. Verma, H. F. Schaefer III, K. Patkowski, R. A. King, E. F. Valeev,
    F. A. Evangelista, J. M. Turney, T. D. Crawford, and C. D. Sherrill,
    J. Chem. Theory Comput. 13(7) pp 3185--3197 (2017).
    (doi: 10.1021/acs.jctc.7b00174)


                         Additional Contributions by
    P. Kraus, H. Kruse, M. H. Lechner, M. C. Schieber, R. A. Shaw,
    A. Alenaizan, R. Galvelis, Z. L. Glick, S. Lehtola, and J. P. Misiewicz

    -----------------------------------------------------------------------


    Psi4 started on: Wednesday, 10 March 2021 10:56AM

    Process ID: 120810
    Host:       c5-3.compute.lan
    PSIDATADIR: /apps/gb/PSI4/1.3.2/share/psi4
    Memory:     500.0 MiB
    Threads:    12
    
  ==> Input File <==

--------------------------------------------------------------------------
memory 4 GB

molecule  {
0 3
O    0.000000000000    0.000000000000    1.270171670022
H    0.000000000000   -0.761693365832    1.857794475904
H   -0.000000000000    0.761693365832    1.857794475904
O    0.000000000000    0.000000000000   -1.504287552737
}
set {
basis aug-cc-pvtz
reference uhf
e_convergence 10
scf_type pk
freeze_core true
}

set ccenergy {
e_convergence 10
r_convergence 10
}

e = energy('ccsd(t)')

print_out('Stephenergy {}'.format(e))

--------------------------------------------------------------------------

  Memory set to   3.725 GiB by Python driver.

*** tstart() called on c5-3.compute.lan
*** at Wed Mar 10 10:56:04 2021

   => Loading Basis Set <=

    Name: AUG-CC-PVTZ
    Role: ORBITAL
    Keyword: BASIS
    atoms 1, 4 entry O          line   327 file /apps/gb/PSI4/1.3.2/share/psi4/basis/aug-cc-pvtz.gbs 
    atoms 2-3  entry H          line    36 file /apps/gb/PSI4/1.3.2/share/psi4/basis/aug-cc-pvtz.gbs 


         ---------------------------------------------------------
                                   SCF
               by Justin Turney, Rob Parrish, Andy Simmonett
                          and Daniel G. A. Smith
                              UHF Reference
                       12 Threads,   3814 MiB Core
         ---------------------------------------------------------

  ==> Geometry <==

    Molecular point group: c2v
    Full point group: C2v

    Geometry (in Angstrom), charge = 0, multiplicity = 3:

       Center              X                  Y                   Z               Mass       
    ------------   -----------------  -----------------  -----------------  -----------------
         O            0.000000000000     0.000000000000     1.270171670022    15.994914619570
         H            0.000000000000    -0.761693365832     1.857794475904     1.007825032230
         H           -0.000000000000     0.761693365832     1.857794475904     1.007825032230
         O            0.000000000000     0.000000000000    -1.504287552737    15.994914619570

  Running in c2v symmetry.

  Rotational constants: A =     14.41521  B =      0.24447  C =      0.24039 [cm^-1]
  Rotational constants: A = 432157.16372  B =   7328.94570  C =   7206.72695 [MHz]
  Nuclear repulsion =   23.811408888403754

  Charge       = 0
  Multiplicity = 3
  Electrons    = 18
  Nalpha       = 10
  Nbeta        = 8

  ==> Algorithm <==

  SCF Algorithm Type is PK.
  DIIS enabled.
  MOM disabled.
  Fractional occupation disabled.
  Guess Type is SAD.
  Energy threshold   = 1.00e-10
  Density threshold  = 1.00e-08
  Integral threshold = 0.00e+00

  ==> Primary Basis <==

  Basis Set: AUG-CC-PVTZ
    Blend: AUG-CC-PVTZ
    Number of shells: 46
    Number of basis function: 138
    Number of Cartesian functions: 160
    Spherical Harmonics?: true
    Max angular momentum: 3

  ==> Pre-Iterations <==

   -------------------------------------------------------
    Irrep   Nso     Nmo     Nalpha   Nbeta   Ndocc  Nsocc
   -------------------------------------------------------
     A1        54      54       0       0       0       0
     A2        17      17       0       0       0       0
     B1        29      29       0       0       0       0
     B2        38      38       0       0       0       0
   -------------------------------------------------------
    Total     138     138      10       8       8       2
   -------------------------------------------------------

  ==> Integral Setup <==

  Using in-core PK algorithm.
   Calculation information:
      Number of atoms:                   4
      Number of AO shells:              46
      Number of primitives:             82
      Number of atomic orbitals:       160
      Number of basis functions:       138

      Integral cutoff                 1.00e-12
      Number of threads:                12

  Performing in-core PK
  Using 91996872 doubles for integral storage.
  We computed 909596 shell quartets total.
  Whereas there are 584821 unique shell quartets.
    55.53 percent of shell quartets recomputed by reordering.

  ==> DiskJK: Disk-Based J/K Matrices <==

    J tasked:                  Yes
    K tasked:                  Yes
    wK tasked:                  No
    Memory [MiB]:             2861
    Schwarz Cutoff:          1E-12

    OpenMP threads:             12

  Minimum eigenvalue in the overlap matrix is 3.2324502576E-04.
  Using Symmetric Orthogonalization.

  SCF Guess: Superposition of Atomic Densities via on-the-fly atomic UHF.

  ==> Iterations <==

                        Total Energy        Delta E     RMS |[F,P]|

   @UHF iter SAD:  -149.38064258207575   -1.49381e+02   0.00000e+00 
   @UHF iter   1:  -150.76988612588096   -1.38924e+00   6.69635e-03 DIIS
   @UHF iter   2:  -150.84063445830438   -7.07483e-02   4.25780e-03 DIIS
   @UHF iter   3:  -150.87196029533598   -3.13258e-02   5.59181e-04 DIIS
   @UHF iter   4:  -150.87333753289374   -1.37724e-03   1.71116e-04 DIIS
   @UHF iter   5:  -150.87347177119253   -1.34238e-04   6.98178e-05 DIIS
   @UHF iter   6:  -150.87350489415758   -3.31230e-05   2.08671e-05 DIIS
   @UHF iter   7:  -150.87350799990375   -3.10575e-06   5.36449e-06 DIIS
   @UHF iter   8:  -150.87350822504783   -2.25144e-07   1.49435e-06 DIIS
   @UHF iter   9:  -150.87350824207792   -1.70301e-08   3.73373e-07 DIIS
   @UHF iter  10:  -150.87350824320737   -1.12945e-09   1.79869e-07 DIIS
   @UHF iter  11:  -150.87350824356110   -3.53737e-10   6.98000e-08 DIIS
   @UHF iter  12:  -150.87350824361570   -5.45981e-11   1.49979e-08 DIIS
   @UHF iter  13:  -150.87350824361744   -1.73372e-12   4.49291e-09 DIIS
  Energy and wave function converged.


  ==> Post-Iterations <==

   @Spin Contamination Metric:   9.531407923E-03
   @S^2 Expected:                2.000000000E+00
   @S^2 Observed:                2.009531408E+00
   @S   Expected:                1.000000000E+00
   @S   Observed:                1.000000000E+00

    Orbital Energies [Eh]
    ---------------------

    Alpha Occupied:                                                       

       1A1   -20.684524     2A1   -20.571138     3A1    -1.393943  
       4A1    -1.354861     1B2    -0.719078     5A1    -0.688174  
       1B1    -0.685247     2B2    -0.586257     6A1    -0.585803  
       2B1    -0.513848  

    Alpha Virtual:                                                        

       7A1     0.029571     3B2     0.047653     8A1     0.118594  
       3B1     0.154029     9A1     0.159511     4B2     0.180225  
       5B2     0.186907     4B1     0.192735    10A1     0.197885  
       1A2     0.263594     6B2     0.264124    11A1     0.264714  
      12A1     0.314442     5B1     0.327025    13A1     0.376125  
       7B2     0.380220    14A1     0.449728     8B2     0.464260  
       9B2     0.600166     6B1     0.643512    15A1     0.647230  
       2A2     0.658174    16A1     0.666499    17A1     0.696261  
       3A2     0.721447    10B2     0.722546     7B1     0.767717  
      18A1     0.793093    19A1     0.818573     8B1     0.837471  
      20A1     0.860525     9B1     0.901353    11B2     0.918736  
       4A2     0.924533    12B2     0.945953    13B2     0.979434  
      21A1     0.990177    10B1     1.012772    22A1     1.046309  
      14B2     1.051162    11B1     1.122174     5A2     1.176291  
      23A1     1.191178    15B2     1.198797    16B2     1.327220  
      24A1     1.335910    25A1     1.444417     6A2     1.507248  
      12B1     1.594505    26A1     1.667847    27A1     1.812294  
      17B2     1.819064    18B2     1.977124    28A1     2.040757  
      13B1     2.047742    19B2     2.054051     7A2     2.056772  
      14B1     2.058891    29A1     2.078606    30A1     2.114859  
       8A2     2.118689    20B2     2.135247    31A1     2.140309  
      15B1     2.144979    32A1     2.251735    21B2     2.267158  
      16B1     2.303424     9A2     2.311796    17B1     2.433730  
      33A1     2.470143    22B2     2.481748    34A1     2.485631  
      35A1     2.696702    18B1     2.716317    23B2     2.722127  
      36A1     2.838408    24B2     2.864399    10A2     2.879768  
      25B2     3.689750    37A1     3.754774    11A2     4.011575  
      19B1     4.079185    20B1     4.099226    38A1     4.142735  
      26B2     4.183051    27B2     4.278988    21B1     4.292580  
      39A1     4.350931    12A2     4.381578    40A1     4.430286  
      22B1     4.449971    28B2     4.512945    41A1     4.786289  
      29B2     4.835999    30B2     5.137157    13A2     5.143836  
      31B2     5.250377    42A1     5.337553    23B1     5.513215  
      43A1     5.686900    44A1     6.194726    24B1     6.388910  
      45A1     6.408944    14A2     6.410146    32B2     6.423589  
      25B1     6.435493    33B2     6.486016    46A1     6.534925  
      34B2     6.582726    26B1     6.715924    27B1     6.902323  
      47A1     6.904921    15A2     6.924509    48A1     6.937429  
      35B2     6.985608    49A1     7.045807    28B1     7.134980  
      29B1     7.277364    16A2     7.303982    36B2     7.312702  
      17A2     7.352761    50A1     7.435178    51A1     7.541600  
      37B2     7.911389    52A1     7.911988    38B2     8.799796  
      53A1     8.860641    54A1    15.757953  

    Beta Occupied:                                                        

       1A1   -20.605658     2A1   -20.570675     3A1    -1.354169  
       4A1    -1.051138     1B2    -0.718749     5A1    -0.587506  
       1B1    -0.513187     2B2    -0.495676  

    Beta Virtual:                                                         

       6A1     0.029411     3B2     0.047734     2B1     0.086503  
       7A1     0.091921     8A1     0.140972     9A1     0.167005  
       3B1     0.170595     4B2     0.180843     5B2     0.190508  
      10A1     0.225431     4B1     0.253284     1A2     0.263597  
       6B2     0.264570    11A1     0.288381    12A1     0.316878  
       5B1     0.328321     7B2     0.380393    13A1     0.386419  
      14A1     0.450796     8B2     0.464456     9B2     0.601787  
      15A1     0.660132     6B1     0.667295     2A2     0.672597  
      16A1     0.673779    17A1     0.713449     3A2     0.721909  
      10B2     0.734749     7B1     0.779001    18A1     0.806498  
       8B1     0.846732    19A1     0.850175     4A2     0.924922  
      20A1     0.928048    11B2     0.936397    12B2     0.953062  
      13B2     0.983232     9B1     0.986792    21A1     0.997227  
      14B2     1.052263    22A1     1.052588    10B1     1.060401  
      11B1     1.138233     5A2     1.176485    23A1     1.192658  
      15B2     1.201515    16B2     1.329617    24A1     1.392546  
      25A1     1.484014     6A2     1.507667    12B1     1.596474  
      26A1     1.697745    27A1     1.817318    17B2     1.819388  
      18B2     1.978527    28A1     2.070164    13B1     2.070816  
      19B2     2.071477     7A2     2.081410    29A1     2.098680  
      14B1     2.100180    30A1     2.155778    20B2     2.180955  
       8A2     2.201912    31A1     2.207747    15B1     2.258018  
      32A1     2.308485     9A2     2.311928    21B2     2.318957  
      16B1     2.319238    17B1     2.441706    33A1     2.482216  
      22B2     2.484621    34A1     2.515247    35A1     2.704011  
      18B1     2.718003    23B2     2.723027    36A1     2.850572  
      24B2     2.864574    10A2     2.879802    25B2     3.690630  
      37A1     3.754914    11A2     4.011603    19B1     4.081451  
      38A1     4.175276    26B2     4.218095    20B1     4.260129  
      27B2     4.290412    21B1     4.296803    12A2     4.381684  
      39A1     4.428396    22B1     4.455127    40A1     4.468016  
      28B2     4.513027    41A1     4.797151    29B2     4.836152  
      30B2     5.137338    13A2     5.143911    31B2     5.250784  
      42A1     5.338180    23B1     5.513326    43A1     5.691434  
      44A1     6.196332    24B1     6.485590    14A2     6.486976  
      32B2     6.487757    45A1     6.493161    25B1     6.499175  
      33B2     6.522081    46A1     6.606418    34B2     6.610201  
      26B1     6.722831    47A1     6.951814    15A2     7.038062  
      48A1     7.041962    27B1     7.084861    35B2     7.097472  
      28B1     7.135378    49A1     7.173722    29B1     7.281508  
      16A2     7.304246    36B2     7.312887    17A2     7.353175  
      50A1     7.437936    51A1     7.542681    37B2     7.911738  
      52A1     7.912545    38B2     8.800167    53A1     8.940065  
      54A1    15.758271  

    Final Occupation by Irrep:
             A1    A2    B1    B2 
    DOCC [     5,    0,    1,    2 ]
    SOCC [     1,    0,    1,    0 ]

  @UHF Final Energy:  -150.87350824361744

   => Energetics <=

    Nuclear Repulsion Energy =             23.8114088884037542
    One-Electron Energy =                -255.6902043739516728
    Two-Electron Energy =                  81.0052872419304890
    Total Energy =                       -150.8735082436174366

  UHF NO Occupations:
  HONO-2 :    5 A1 1.9970492
  HONO-1 :    2 B1 1.0000000
  HONO-0 :    6 A1 1.0000000
  LUNO+0 :    7 A1 0.0029508
  LUNO+1 :    3 B2 0.0017952
  LUNO+2 :    8 A1 0.0000218
  LUNO+3 :    9 A1 0.0000024


Computation Completed


Properties will be evaluated at   0.000000,   0.000000,   0.000000 [a0]

Properties computed using the SCF density matrix

  Nuclear Dipole Moment: [e a0]
     X:     0.0000      Y:     0.0000      Z:     3.4821

  Electronic Dipole Moment: [e a0]
     X:     0.0000      Y:     0.0000      Z:    -2.6475

  Dipole Moment: [e a0]
     X:     0.0000      Y:     0.0000      Z:     0.8346     Total:     0.8346

  Dipole Moment: [D]
     X:     0.0000      Y:     0.0000      Z:     2.1214     Total:     2.1214


*** tstop() called on c5-3.compute.lan at Wed Mar 10 10:56:11 2021
Module time:
	user time   =      58.67 seconds =       0.98 minutes
	system time =       2.36 seconds =       0.04 minutes
	total time  =          7 seconds =       0.12 minutes
Total time:
	user time   =      58.67 seconds =       0.98 minutes
	system time =       2.36 seconds =       0.04 minutes
	total time  =          7 seconds =       0.12 minutes
 MINTS: Wrapper to libmints.
   by Justin Turney

   Calculation information:
      Number of threads:                12
      Number of atoms:                   4
      Number of AO shells:              46
      Number of SO shells:              37
      Number of primitives:             82
      Number of atomic orbitals:       160
      Number of basis functions:       138

      Number of irreps:                  4
      Integral cutoff                 0.00e+00
      Number of functions per irrep: [  54   17   29   38 ]

 OEINTS: Overlap, kinetic, potential, dipole, and quadrupole integrals
         stored in file 35.

      Computing two-electron integrals...done
      Computed 11532538 non-zero two-electron integrals.
        Stored in file 33.


*** tstart() called on c5-3.compute.lan
*** at Wed Mar 10 10:56:14 2021


	Wfn Parameters:
	--------------------
	Wavefunction         = CCSD_T
	Number of irreps     = 4
	Number of MOs        = 138
	Number of active MOs = 136
	AO-Basis             = NONE
	Semicanonical        = false
	Reference            = UHF
	Print Level          = 1

	IRREP	# MOs	# FZDC	# DOCC	# SOCC	# VIRT	# FZVR
	-----	-----	------	------	------	------	------
	 A1	   54	    2	    3	    1	    48	    0
	 A2	   17	    0	    0	    0	    17	    0
	 B1	   29	    0	    1	    1	    27	    0
	 B2	   38	    0	    2	    0	    36	    0
	Transforming integrals...
	IWL integrals will be deleted.
	(OO|OO)...
	Presorting SO-basis two-electron integrals.
	Sorting File: SO Ints (nn|nn) nbuckets = 1
	Transforming the one-electron integrals and constructing Fock matrices
	Starting AA/AB first half-transformation.
	Sorting AA/AB half-transformed integrals.
	Starting BB first half-transformation.
	Sorting BB half-transformed integrals.
	First half integral transformation complete.
	Starting AA second half-transformation.
	Starting AB second half-transformation.
	Starting BB second half-transformation.
	Two-electron integral transformation complete.
	(OO|OV)...
	Starting AA second half-transformation.
	Starting AB second half-transformation.
	Starting BB second half-transformation.
	Two-electron integral transformation complete.
	(OO|VV)...
	Starting AA second half-transformation.
	Starting AB second half-transformation.
	Starting BB second half-transformation.
	Two-electron integral transformation complete.
	(OV|OO)...
	Starting AA/AB first half-transformation.
	Sorting AA/AB half-transformed integrals.
	Starting BB first half-transformation.
	Sorting BB half-transformed integrals.
	First half integral transformation complete.
	Starting AA second half-transformation.
	Starting AB second half-transformation.
	Starting BB second half-transformation.
	Two-electron integral transformation complete.
	(OV|OV)...
	Starting AA second half-transformation.
	Starting AB second half-transformation.
	Starting BB second half-transformation.
	Two-electron integral transformation complete.
	(OV|VV)...
	Starting AA second half-transformation.
	Starting AB second half-transformation.
	Starting BB second half-transformation.
	Two-electron integral transformation complete.
	(VV|OO)...
	Starting AA/AB first half-transformation.
	Sorting AA/AB half-transformed integrals.
	Starting BB first half-transformation.
	Sorting BB half-transformed integrals.
	First half integral transformation complete.
	Starting AA second half-transformation.
	Starting AB second half-transformation.
	Starting BB second half-transformation.
	Two-electron integral transformation complete.
	(VV|OV)...
	Starting AA second half-transformation.
	Starting AB second half-transformation.
	Starting BB second half-transformation.
	Two-electron integral transformation complete.
	(VV|VV)...
	Starting AA second half-transformation.
	Starting AB second half-transformation.
	Starting BB second half-transformation.
	Two-electron integral transformation complete.
	Frozen core energy     =   -126.36555506155254

	Size of irrep 0 of <AB|CD> integrals:      5.040 (MW) /     40.320 (MB)
	Size of irrep 1 of <AB|CD> integrals:      3.197 (MW) /     25.576 (MB)
	Size of irrep 2 of <AB|CD> integrals:      3.640 (MW) /     29.124 (MB)
	Size of irrep 3 of <AB|CD> integrals:      4.783 (MW) /     38.264 (MB)
	Total:                                    16.660 (MW) /    133.283 (MB)

	Size of irrep 0 of <ab|cd> integrals:      5.382 (MW) /     43.059 (MB)
	Size of irrep 1 of <ab|cd> integrals:      3.389 (MW) /     27.114 (MB)
	Size of irrep 2 of <ab|cd> integrals:      3.936 (MW) /     31.490 (MB)
	Size of irrep 3 of <ab|cd> integrals:      5.018 (MW) /     40.141 (MB)
	Total:                                    17.726 (MW) /    141.804 (MB)

	Size of irrep 0 of <Ab|Cd> integrals:     22.024 (MW) /    176.194 (MB)
	Size of irrep 1 of <Ab|Cd> integrals:     13.170 (MW) /    105.357 (MB)
	Size of irrep 2 of <Ab|Cd> integrals:     15.140 (MW) /    121.119 (MB)
	Size of irrep 3 of <Ab|Cd> integrals:     19.598 (MW) /    156.787 (MB)
	Total:                                    69.932 (MW) /    559.457 (MB)

	Size of irrep 0 of <IA|BC> integrals:      1.469 (MW) /     11.748 (MB)
	Size of irrep 1 of <IA|BC> integrals:      0.694 (MW) /      5.550 (MB)
	Size of irrep 2 of <IA|BC> integrals:      0.908 (MW) /      7.266 (MB)
	Size of irrep 3 of <IA|BC> integrals:      1.198 (MW) /      9.588 (MB)
	Total:                                     4.269 (MW) /     34.152 (MB)

	Size of irrep 0 of <ia|bc> integrals:      1.178 (MW) /      9.426 (MB)
	Size of irrep 1 of <ia|bc> integrals:      0.527 (MW) /      4.212 (MB)
	Size of irrep 2 of <ia|bc> integrals:      0.663 (MW) /      5.301 (MB)
	Size of irrep 3 of <ia|bc> integrals:      0.999 (MW) /      7.992 (MB)
	Total:                                     3.366 (MW) /     26.931 (MB)

	Size of irrep 0 of <Ia|Bc> integrals:      1.521 (MW) /     12.164 (MB)
	Size of irrep 1 of <Ia|Bc> integrals:      0.711 (MW) /      5.690 (MB)
	Size of irrep 2 of <Ia|Bc> integrals:      0.949 (MW) /      7.595 (MB)
	Size of irrep 3 of <Ia|Bc> integrals:      1.222 (MW) /      9.775 (MB)
	Total:                                     4.403 (MW) /     35.225 (MB)

	Size of irrep 0 of <iA|bC> integrals:      1.140 (MW) /      9.123 (MB)
	Size of irrep 1 of <iA|bC> integrals:      0.512 (MW) /      4.094 (MB)
	Size of irrep 2 of <iA|bC> integrals:      0.634 (MW) /      5.074 (MB)
	Size of irrep 3 of <iA|bC> integrals:      0.978 (MW) /      7.827 (MB)
	Total:                                     3.265 (MW) /     26.118 (MB)

	Size of irrep 0 of tIjAb amplitudes:       0.084 (MW) /      0.676 (MB)
	Size of irrep 1 of tIjAb amplitudes:       0.022 (MW) /      0.174 (MB)
	Size of irrep 2 of tIjAb amplitudes:       0.039 (MW) /      0.311 (MB)
	Size of irrep 3 of tIjAb amplitudes:       0.062 (MW) /      0.496 (MB)
	Total:                                     0.207 (MW) /      1.657 (MB)

	Nuclear Rep. energy          =     23.81140888840375
	SCF energy                   =   -150.87350824361744
	One-electron energy          =    -85.39108819927981
	Two-electron (AA) energy     =     10.36156362395268
	Two-electron (BB) energy     =      5.46551310839528
	Two-electron (AB) energy     =     21.24464939646192
	Two-electron energy          =     37.07172612880989
	Reference energy             =   -150.87350824361869

*** tstop() called on c5-3.compute.lan at Wed Mar 10 10:56:39 2021
Module time:
	user time   =      65.97 seconds =       1.10 minutes
	system time =      13.60 seconds =       0.23 minutes
	total time  =         25 seconds =       0.42 minutes
Total time:
	user time   =     129.97 seconds =       2.17 minutes
	system time =      16.36 seconds =       0.27 minutes
	total time  =         35 seconds =       0.58 minutes
            **************************
            *                        *
            *        CCENERGY        *
            *                        *
            **************************

    Nuclear Rep. energy (wfn)     =   23.811408888403754
    SCF energy          (wfn)     = -150.873508243617437
    Reference energy    (file100) = -150.873508243618687

    Input parameters:
    -----------------
    Wave function   =     CCSD_T
    Reference wfn   =     UHF
    Brueckner       =     No
    Memory (Mbytes) =     4000.0
    Maxiter         =     50
    R_Convergence   =     1.0e-10
    E_Convergence   =     1.0e-10
    Restart         =     Yes
    DIIS            =     Yes
    AO Basis        =     NONE
    ABCD            =     NEW
    Cache Level     =     2
    Cache Type      =     LRU
    Print Level     =     1
    Num. of threads =     12
    # Amps to Print =     10
    Print MP2 Amps? =     No
    Analyze T2 Amps =     No
    Print Pair Ener =     No
    Local CC        =     No
    SCS-MP2         =     False
    SCSN-MP2        =     False
    SCS-CCSD        =     False

MP2 correlation energy -0.4162852066988979
                Solving CC Amplitude Equations
                ------------------------------
  Iter             Energy              RMS        T1Diag      D1Diag    New D1Diag    D2Diag
  ----     ---------------------    ---------   ----------  ----------  ----------   --------
     0        -0.416285206698898    0.000e+00    0.000000    0.000000    0.000000    0.000000
     1        -0.427061592412161    5.700e-02    0.010583    0.000000    0.000000    0.000000
     2        -0.435160643359674    1.704e-02    0.011077    0.000000    0.000000    0.000000
     3        -0.437313699081195    8.779e-03    0.013000    0.000000    0.000000    0.000000
     4        -0.437187307809139    2.682e-03    0.013409    0.000000    0.000000    0.000000
     5        -0.437177794469278    1.396e-03    0.013602    0.000000    0.000000    0.000000
     6        -0.437206897530880    5.299e-04    0.013629    0.000000    0.000000    0.000000
     7        -0.437209879275299    2.150e-04    0.013623    0.000000    0.000000    0.000000
     8        -0.437210815473296    6.683e-05    0.013618    0.000000    0.000000    0.000000
     9        -0.437211505302995    2.389e-05    0.013618    0.000000    0.000000    0.000000
    10        -0.437210602635416    9.230e-06    0.013617    0.000000    0.000000    0.000000
    11        -0.437210767924445    4.003e-06    0.013617    0.000000    0.000000    0.000000
    12        -0.437210727908953    1.446e-06    0.013617    0.000000    0.000000    0.000000
    13        -0.437210735819345    7.311e-07    0.013617    0.000000    0.000000    0.000000
    14        -0.437210758382667    3.053e-07    0.013617    0.000000    0.000000    0.000000
    15        -0.437210760084311    1.115e-07    0.013617    0.000000    0.000000    0.000000
    16        -0.437210760653235    5.002e-08    0.013617    0.000000    0.000000    0.000000
    17        -0.437210761231700    1.926e-08    0.013617    0.000000    0.000000    0.000000
    18        -0.437210761087953    1.001e-08    0.013617    0.000000    0.000000    0.000000
    19        -0.437210760878372    3.947e-09    0.013617    0.000000    0.000000    0.000000
    20        -0.437210760867972    2.129e-09    0.013617    0.000000    0.000000    0.000000
    21        -0.437210760844757    8.131e-10    0.013617    0.000000    0.000000    0.000000
    22        -0.437210760843254    3.270e-10    0.013617    0.000000    0.000000    0.000000
    23        -0.437210760842308    1.697e-10    0.013617    0.000000    0.000000    0.000000
    24        -0.437210760842141    6.961e-11    0.013617    0.000000    0.000000    0.000000

    Iterations converged.


    Largest TIA Amplitudes:
              5  65        -0.0133489085
              5  67        -0.0111757739
              7  94         0.0103983846
              5  66        -0.0097110683
              4  65        -0.0074621039
              3   1         0.0074191339
              2   3         0.0072067987
              4  66         0.0071646867
              3   5        -0.0055831563
              3   6         0.0054149786

    Largest Tia Amplitudes:
              3  67        -0.0148383791
              2   2         0.0134676965
              3  69        -0.0107912283
              5  96         0.0079686499
              3  66        -0.0076865715
              2   1        -0.0068433867
              2   7         0.0056329424
              2   6        -0.0055555305
              1  25        -0.0054351549
              4 109         0.0053976957

    Largest TIJAB Amplitudes:
      7   4 100  71         0.0142704005
      7   4  55  23        -0.0135937880
      7   2 100  12        -0.0120658394
      4   2  71  12         0.0109530192
      6   5  50   9        -0.0086450172
      7   4  49  23         0.0082545152
      6   5  97  72        -0.0081050248
      7   4  94  71         0.0078671612
      7   4  55   8        -0.0076022755
      7   4 100  82        -0.0074001047

    Largest Tijab Amplitudes:
      5   1  66  56         0.0086749855
      5   1  66  50        -0.0085730093
      5   1  68  56         0.0081624794
      4   3  99  67        -0.0076476627
      5   1  68  50        -0.0074592548
      4   3  99  73        -0.0073355493
      4   2  99   2         0.0071846077
      4   2  99  12         0.0068614756
      4   2 100   9        -0.0067499050
      4   3  51  10        -0.0065338824

    Largest TIjAb Amplitudes:
      7   5 100 103        -0.0220129661
      6   4  97  99        -0.0217998583
      7   5 100 102         0.0186137579
      7   1  55  66        -0.0180638997
      7   5 100  96        -0.0170831759
      7   1  55  68        -0.0168483360
      4   1  23  66        -0.0167835770
      5   3  72  73        -0.0163206559
      4   1  23  68        -0.0156145706
      4   5  71 103         0.0146207807

    SCF energy       (wfn)                    = -150.873508243617437
    Reference energy (file100)                = -150.873508243618687

    Opposite-spin MP2 correlation energy      =   -0.314441849275882
    Same-spin MP2 correlation energy          =   -0.101843357423016
    MP2 correlation energy                    =   -0.416285206698898
      * MP2 total energy                      = -151.289793450317575

    Opposite-spin CCSD correlation energy     =   -0.342103685581803
    Same-spin CCSD correlation energy         =   -0.095107075260338
    CCSD correlation energy                   =   -0.437210760842141
      * CCSD total energy                     = -151.310719004460822

            **************************
            *                        *
            *        CCTRIPLES       *
            *                        *
            **************************


    Wave function   =    CCSD_T
    Reference wfn   =      UHF

    Nuclear Rep. energy (wfn)                =   23.811408888403754
    SCF energy          (wfn)                = -150.873508243617437
    Reference energy    (file100)            = -150.873508243618687
    CCSD energy         (file100)            =   -0.437210760842141
    Total CCSD energy   (file100)            = -151.310719004460822

    Number of ijk index combinations:
    Spin Case AAA:                                  56
    Spin Case BBB:                                  20
    Spin Case AAB:                                 168
    Spin Case ABB:                                 120
    AAA (T) energy                             =   -0.000395755519250
    BBB (T) energy                             =   -0.000202190819046
    AAB (T) energy                             =   -0.006711176827266
    ABB (T) energy                             =   -0.004986415993953
    (T) energy                                   =   -0.012295539159515
      * CCSD(T) total energy                     = -151.323014543620332

Stephenergy -151.32301454362033
    Psi4 stopped on: Wednesday, 10 March 2021 10:57AM
    Psi4 wall time for execution: 0:01:46.49

*** Psi4 exiting successfully. Buy a developer a beer!
