
    -----------------------------------------------------------------------
          Psi4: An Open-Source Ab Initio Electronic Structure Package
                               Psi4 1.3.2 release

                         Git: Rev {HEAD} ecbda83 


    R. M. Parrish, L. A. Burns, D. G. A. Smith, A. C. Simmonett,
    A. E. DePrince III, E. G. Hohenstein, U. Bozkaya, A. Yu. Sokolov,
    R. Di Remigio, R. M. Richard, J. F. Gonthier, A. M. James,
    H. R. McAlexander, A. Kumar, M. Saitow, X. Wang, B. P. Pritchard,
    P. Verma, H. F. Schaefer III, K. Patkowski, R. A. King, E. F. Valeev,
    F. A. Evangelista, J. M. Turney, T. D. Crawford, and C. D. Sherrill,
    J. Chem. Theory Comput. 13(7) pp 3185--3197 (2017).
    (doi: 10.1021/acs.jctc.7b00174)


                         Additional Contributions by
    P. Kraus, H. Kruse, M. H. Lechner, M. C. Schieber, R. A. Shaw,
    A. Alenaizan, R. Galvelis, Z. L. Glick, S. Lehtola, and J. P. Misiewicz

    -----------------------------------------------------------------------


    Psi4 started on: Wednesday, 10 March 2021 09:23AM

    Process ID: 25577
    Host:       d3-17.compute.lan
    PSIDATADIR: /apps/gb/PSI4/1.3.2/share/psi4
    Memory:     500.0 MiB
    Threads:    12
    
  ==> Input File <==

--------------------------------------------------------------------------
memory 4 GB

molecule  {
0 3
O    0.000000000000    0.000000000000   -1.442928669299
H    0.000000000000   -0.729955010400   -0.827899326418
H   -0.000000000000    0.729955010400   -0.827899326418
O    0.000000000000    0.000000000000    1.547259037441
}
set {
basis aug-cc-pvtz
reference uhf
e_convergence 10
scf_type pk
freeze_core true
}

set ccenergy {
e_convergence 10
r_convergence 10
}

e = energy('ccsd(t)')

print_out('Stephenergy {}'.format(e))

--------------------------------------------------------------------------

  Memory set to   3.725 GiB by Python driver.

*** tstart() called on d3-17.compute.lan
*** at Wed Mar 10 09:23:30 2021

   => Loading Basis Set <=

    Name: AUG-CC-PVTZ
    Role: ORBITAL
    Keyword: BASIS
    atoms 1, 4 entry O          line   327 file /apps/gb/PSI4/1.3.2/share/psi4/basis/aug-cc-pvtz.gbs 
    atoms 2-3  entry H          line    36 file /apps/gb/PSI4/1.3.2/share/psi4/basis/aug-cc-pvtz.gbs 


         ---------------------------------------------------------
                                   SCF
               by Justin Turney, Rob Parrish, Andy Simmonett
                          and Daniel G. A. Smith
                              UHF Reference
                       12 Threads,   3814 MiB Core
         ---------------------------------------------------------

  ==> Geometry <==

    Molecular point group: c2v
    Full point group: C2v

    Geometry (in Angstrom), charge = 0, multiplicity = 3:

       Center              X                  Y                   Z               Mass       
    ------------   -----------------  -----------------  -----------------  -----------------
         O            0.000000000000     0.000000000000    -1.442928669299    15.994914619570
         H            0.000000000000    -0.729955010400    -0.827899326418     1.007825032230
         H           -0.000000000000     0.729955010400    -0.827899326418     1.007825032230
         O            0.000000000000     0.000000000000     1.547259037441    15.994914619570

  Running in c2v symmetry.

  Rotational constants: A =     15.69601  B =      0.23100  C =      0.22765 [cm^-1]
  Rotational constants: A = 470554.43905  B =   6925.30940  C =   6824.86554 [MHz]
  Nuclear repulsion =   23.966406264768583

  Charge       = 0
  Multiplicity = 3
  Electrons    = 18
  Nalpha       = 10
  Nbeta        = 8

  ==> Algorithm <==

  SCF Algorithm Type is PK.
  DIIS enabled.
  MOM disabled.
  Fractional occupation disabled.
  Guess Type is SAD.
  Energy threshold   = 1.00e-10
  Density threshold  = 1.00e-08
  Integral threshold = 0.00e+00

  ==> Primary Basis <==

  Basis Set: AUG-CC-PVTZ
    Blend: AUG-CC-PVTZ
    Number of shells: 46
    Number of basis function: 138
    Number of Cartesian functions: 160
    Spherical Harmonics?: true
    Max angular momentum: 3

  ==> Pre-Iterations <==

   -------------------------------------------------------
    Irrep   Nso     Nmo     Nalpha   Nbeta   Ndocc  Nsocc
   -------------------------------------------------------
     A1        54      54       0       0       0       0
     A2        17      17       0       0       0       0
     B1        29      29       0       0       0       0
     B2        38      38       0       0       0       0
   -------------------------------------------------------
    Total     138     138      10       8       8       2
   -------------------------------------------------------

  ==> Integral Setup <==

  Using in-core PK algorithm.
   Calculation information:
      Number of atoms:                   4
      Number of AO shells:              46
      Number of primitives:             82
      Number of atomic orbitals:       160
      Number of basis functions:       138

      Integral cutoff                 1.00e-12
      Number of threads:                12

  Performing in-core PK
  Using 91996872 doubles for integral storage.
  We computed 929711 shell quartets total.
  Whereas there are 584821 unique shell quartets.
    58.97 percent of shell quartets recomputed by reordering.

  ==> DiskJK: Disk-Based J/K Matrices <==

    J tasked:                  Yes
    K tasked:                  Yes
    wK tasked:                  No
    Memory [MiB]:             2861
    Schwarz Cutoff:          1E-12

    OpenMP threads:             12

  Minimum eigenvalue in the overlap matrix is 3.5667539028E-04.
  Using Symmetric Orthogonalization.

  SCF Guess: Superposition of Atomic Densities via on-the-fly atomic UHF.

  ==> Iterations <==

                        Total Energy        Delta E     RMS |[F,P]|

   @UHF iter SAD:  -149.41690105861639   -1.49417e+02   0.00000e+00 
   @UHF iter   1:  -150.76060263695646   -1.34370e+00   7.01421e-03 DIIS
   @UHF iter   2:  -150.83541609642214   -7.48135e-02   4.52945e-03 DIIS
   @UHF iter   3:  -150.87018546325277   -3.47694e-02   5.42091e-04 DIIS
   @UHF iter   4:  -150.87130944182002   -1.12398e-03   1.77447e-04 DIIS
   @UHF iter   5:  -150.87143156582312   -1.22124e-04   6.94408e-05 DIIS
   @UHF iter   6:  -150.87146347941564   -3.19136e-05   1.96777e-05 DIIS
   @UHF iter   7:  -150.87146623359837   -2.75418e-06   4.59348e-06 DIIS
   @UHF iter   8:  -150.87146639663575   -1.63037e-07   1.23483e-06 DIIS
   @UHF iter   9:  -150.87146640841732   -1.17816e-08   3.45823e-07 DIIS
   @UHF iter  10:  -150.87146640938602   -9.68697e-10   1.57725e-07 DIIS
   @UHF iter  11:  -150.87146640965292   -2.66908e-10   5.98570e-08 DIIS
   @UHF iter  12:  -150.87146640969274   -3.98188e-11   9.30964e-09 DIIS
  Energy and wave function converged.


  ==> Post-Iterations <==

   @Spin Contamination Metric:   9.015521605E-03
   @S^2 Expected:                2.000000000E+00
   @S^2 Observed:                2.009015522E+00
   @S   Expected:                1.000000000E+00
   @S   Observed:                1.000000000E+00

    Orbital Energies [Eh]
    ---------------------

    Alpha Occupied:                                                       

       1A1   -20.734402     2A1   -20.559335     3A1    -1.444697  
       4A1    -1.350197     1B2    -0.736241     1B1    -0.735063  
       2B2    -0.701286     5A1    -0.644144     6A1    -0.581220  
       2B1    -0.503809  

    Alpha Virtual:                                                        

       7A1     0.036246     3B2     0.048835     8A1     0.130100  
       3B1     0.130444     9A1     0.153484     4B2     0.159325  
       4B1     0.186267     5B2     0.186984    10A1     0.192414  
      11A1     0.265331     6B2     0.265755     1A2     0.266377  
      12A1     0.276276     5B1     0.327026     7B2     0.388305  
      13A1     0.388568    14A1     0.458203     8B2     0.476693  
       2A2     0.614052    15A1     0.631379     9B2     0.631766  
      16A1     0.652528     6B1     0.655368    17A1     0.717673  
       3A2     0.733331    10B2     0.752556     7B1     0.768367  
      18A1     0.775584     8B1     0.825429    11B2     0.851855  
      19A1     0.866530     9B1     0.921064    12B2     0.945901  
       4A2     0.954224    20A1     0.964880    10B1     1.003998  
      21A1     1.007737    13B2     1.022287    14B2     1.072110  
      22A1     1.072211    11B1     1.178569    23A1     1.201031  
       5A2     1.203288    24A1     1.222674    15B2     1.264301  
      16B2     1.357308    25A1     1.457019     6A2     1.514117  
      12B1     1.586321    26A1     1.773989    27A1     1.836377  
      17B2     1.869798    18B2     1.960952    13B1     1.975158  
      28A1     2.012065     7A2     2.019967    19B2     2.024667  
      14B1     2.045144    29A1     2.049752     8A2     2.090854  
      30A1     2.103972    20B2     2.126683    15B1     2.164560  
      31A1     2.219639    16B1     2.327834    21B2     2.346664  
       9A2     2.352316    32A1     2.365791    33A1     2.428442  
      34A1     2.506587    22B2     2.539653    17B1     2.574542  
      35A1     2.634098    23B2     2.697238    18B1     2.728471  
      24B2     2.885392    36A1     2.886811    10A2     2.897965  
      25B2     3.701216    37A1     3.736721    19B1     4.056169  
      11A2     4.071193    20B1     4.128479    26B2     4.133640  
      38A1     4.201089    21B1     4.241458    27B2     4.306668  
      39A1     4.315059    12A2     4.394323    22B1     4.433193  
      40A1     4.534888    28B2     4.578135    41A1     4.792128  
      29B2     4.909079    13A2     5.164330    30B2     5.217801  
      31B2     5.259017    42A1     5.405208    23B1     5.567026  
      43A1     5.649358    44A1     6.249054    24B1     6.311368  
      32B2     6.315005    14A2     6.395468    45A1     6.410805  
      25B1     6.433349    33B2     6.497758    46A1     6.526414  
      34B2     6.576244    26B1     6.787764    15A2     6.821691  
      47A1     6.824495    27B1     6.942695    35B2     6.984210  
      48A1     6.998675    49A1     7.049769    28B1     7.152564  
      29B1     7.278590    36B2     7.331439    16A2     7.339649  
      17A2     7.364919    50A1     7.415910    51A1     7.586163  
      52A1     7.881727    37B2     7.998056    38B2     8.881210  
      53A1     8.988861    54A1    16.008708  

    Beta Occupied:                                                        

       1A1   -20.655955     2A1   -20.559414     3A1    -1.350800  
       4A1    -1.102697     1B2    -0.701872     5A1    -0.597046  
       6A1    -0.539604     1B1    -0.503672  

    Beta Virtual:                                                         

       2B2     0.031940     7A1     0.037568     2B1     0.045926  
       3B2     0.069029     8A1     0.135323     9A1     0.156120  
       3B1     0.160990     4B2     0.179098    10A1     0.193002  
       4B1     0.225483     5B2     0.227973     1A2     0.267098  
       6B2     0.267156    11A1     0.271752    12A1     0.281722  
       5B1     0.329726    13A1     0.392476     7B2     0.398123  
      14A1     0.460164     8B2     0.477100     9B2     0.632755  
       2A2     0.646068    15A1     0.653723     6B1     0.665262  
      16A1     0.665735    17A1     0.718656     3A2     0.734447  
      10B2     0.768035     7B1     0.773858    18A1     0.790137  
      19A1     0.870294     8B1     0.907789    11B2     0.939143  
       9B1     0.941827     4A2     0.957070    12B2     0.958751  
      20A1     0.966865    21A1     1.013131    10B1     1.042114  
      13B2     1.043008    22A1     1.075551    14B2     1.086475  
      11B1     1.193299     5A2     1.204458    23A1     1.219920  
      24A1     1.251094    15B2     1.264490    16B2     1.375612  
      25A1     1.473235     6A2     1.514522    12B1     1.586853  
      26A1     1.795301    27A1     1.844543    17B2     1.871350  
      18B2     1.976173    13B1     2.011994    28A1     2.043037  
      19B2     2.046341    14B1     2.076476     7A2     2.090378  
      29A1     2.107216    20B2     2.188389     8A2     2.189565  
      30A1     2.195530    15B1     2.216284    31A1     2.260928  
      16B1     2.339291     9A2     2.358438    21B2     2.373876  
      32A1     2.374585    33A1     2.439327    34A1     2.509129  
      22B2     2.547871    17B1     2.579193    35A1     2.640077  
      23B2     2.698648    18B1     2.728688    24B2     2.886371  
      36A1     2.887768    10A2     2.898054    25B2     3.702367  
      37A1     3.737791    11A2     4.071339    19B1     4.120616  
      38A1     4.202189    20B1     4.221316    21B1     4.255028  
      26B2     4.297457    27B2     4.307482    39A1     4.333856  
      12A2     4.394394    22B1     4.434201    40A1     4.562279  
      28B2     4.580584    41A1     4.793169    29B2     4.909959  
      13A2     5.164396    30B2     5.217834    31B2     5.259315  
      42A1     5.405678    23B1     5.567051    43A1     5.649676  
      44A1     6.256414    24B1     6.419842    32B2     6.423010  
      14A2     6.471856    45A1     6.482671    25B1     6.487263  
      33B2     6.505493    46A1     6.570741    34B2     6.625508  
      26B1     6.794887    47A1     6.998064    15A2     7.009908  
      48A1     7.022761    27B1     7.047829    35B2     7.092514  
      49A1     7.122490    28B1     7.154296    29B1     7.278764  
      36B2     7.331749    16A2     7.339920    17A2     7.364984  
      50A1     7.416754    51A1     7.587758    52A1     7.881978  
      37B2     7.998094    38B2     8.881046    53A1     9.068093  
      54A1    16.008724  

    Final Occupation by Irrep:
             A1    A2    B1    B2 
    DOCC [     6,    0,    1,    1 ]
    SOCC [     0,    0,    1,    1 ]

  @UHF Final Energy:  -150.87146640969274

   => Energetics <=

    Nuclear Repulsion Energy =             23.9664062647685832
    One-Electron Energy =                -255.6742908487496493
    Two-Electron Energy =                  80.8364181742883261
    Total Energy =                       -150.8714664096927436

  UHF NO Occupations:
  HONO-2 :    6 A1 1.9970871
  HONO-1 :    2 B2 1.0000000
  HONO-0 :    2 B1 1.0000000
  LUNO+0 :    7 A1 0.0029129
  LUNO+1 :    8 A1 0.0015935
  LUNO+2 :    9 A1 0.0000024
  LUNO+3 :   10 A1 0.0000022


Computation Completed


Properties will be evaluated at   0.000000,   0.000000,   0.000000 [a0]

Properties computed using the SCF density matrix

  Nuclear Dipole Moment: [e a0]
     X:     0.0000      Y:     0.0000      Z:    -1.5518

  Electronic Dipole Moment: [e a0]
     X:     0.0000      Y:     0.0000      Z:     2.4296

  Dipole Moment: [e a0]
     X:     0.0000      Y:     0.0000      Z:     0.8779     Total:     0.8779

  Dipole Moment: [D]
     X:     0.0000      Y:     0.0000      Z:     2.2314     Total:     2.2314


*** tstop() called on d3-17.compute.lan at Wed Mar 10 09:23:35 2021
Module time:
	user time   =      40.39 seconds =       0.67 minutes
	system time =       1.81 seconds =       0.03 minutes
	total time  =          5 seconds =       0.08 minutes
Total time:
	user time   =      40.39 seconds =       0.67 minutes
	system time =       1.81 seconds =       0.03 minutes
	total time  =          5 seconds =       0.08 minutes
 MINTS: Wrapper to libmints.
   by Justin Turney

   Calculation information:
      Number of threads:                12
      Number of atoms:                   4
      Number of AO shells:              46
      Number of SO shells:              37
      Number of primitives:             82
      Number of atomic orbitals:       160
      Number of basis functions:       138

      Number of irreps:                  4
      Integral cutoff                 0.00e+00
      Number of functions per irrep: [  54   17   29   38 ]

 OEINTS: Overlap, kinetic, potential, dipole, and quadrupole integrals
         stored in file 35.

      Computing two-electron integrals...done
      Computed 11331080 non-zero two-electron integrals.
        Stored in file 33.


*** tstart() called on d3-17.compute.lan
*** at Wed Mar 10 09:23:38 2021


	Wfn Parameters:
	--------------------
	Wavefunction         = CCSD_T
	Number of irreps     = 4
	Number of MOs        = 138
	Number of active MOs = 136
	AO-Basis             = NONE
	Semicanonical        = false
	Reference            = UHF
	Print Level          = 1

	IRREP	# MOs	# FZDC	# DOCC	# SOCC	# VIRT	# FZVR
	-----	-----	------	------	------	------	------
	 A1	   54	    2	    4	    0	    48	    0
	 A2	   17	    0	    0	    0	    17	    0
	 B1	   29	    0	    1	    1	    27	    0
	 B2	   38	    0	    1	    1	    36	    0
	Transforming integrals...
	IWL integrals will be deleted.
	(OO|OO)...
	Presorting SO-basis two-electron integrals.
	Sorting File: SO Ints (nn|nn) nbuckets = 1
	Transforming the one-electron integrals and constructing Fock matrices
	Starting AA/AB first half-transformation.
	Sorting AA/AB half-transformed integrals.
	Starting BB first half-transformation.
	Sorting BB half-transformed integrals.
	First half integral transformation complete.
	Starting AA second half-transformation.
	Starting AB second half-transformation.
	Starting BB second half-transformation.
	Two-electron integral transformation complete.
	(OO|OV)...
	Starting AA second half-transformation.
	Starting AB second half-transformation.
	Starting BB second half-transformation.
	Two-electron integral transformation complete.
	(OO|VV)...
	Starting AA second half-transformation.
	Starting AB second half-transformation.
	Starting BB second half-transformation.
	Two-electron integral transformation complete.
	(OV|OO)...
	Starting AA/AB first half-transformation.
	Sorting AA/AB half-transformed integrals.
	Starting BB first half-transformation.
	Sorting BB half-transformed integrals.
	First half integral transformation complete.
	Starting AA second half-transformation.
	Starting AB second half-transformation.
	Starting BB second half-transformation.
	Two-electron integral transformation complete.
	(OV|OV)...
	Starting AA second half-transformation.
	Starting AB second half-transformation.
	Starting BB second half-transformation.
	Two-electron integral transformation complete.
	(OV|VV)...
	Starting AA second half-transformation.
	Starting AB second half-transformation.
	Starting BB second half-transformation.
	Two-electron integral transformation complete.
	(VV|OO)...
	Starting AA/AB first half-transformation.
	Sorting AA/AB half-transformed integrals.
	Starting BB first half-transformation.
	Sorting BB half-transformed integrals.
	First half integral transformation complete.
	Starting AA second half-transformation.
	Starting AB second half-transformation.
	Starting BB second half-transformation.
	Two-electron integral transformation complete.
	(VV|OV)...
	Starting AA second half-transformation.
	Starting AB second half-transformation.
	Starting BB second half-transformation.
	Two-electron integral transformation complete.
	(VV|VV)...
	Starting AA second half-transformation.
	Starting AB second half-transformation.
	Starting BB second half-transformation.
	Two-electron integral transformation complete.
	Frozen core energy     =   -126.23567398444250

	Size of irrep 0 of <AB|CD> integrals:      5.040 (MW) /     40.320 (MB)
	Size of irrep 1 of <AB|CD> integrals:      3.197 (MW) /     25.576 (MB)
	Size of irrep 2 of <AB|CD> integrals:      3.640 (MW) /     29.124 (MB)
	Size of irrep 3 of <AB|CD> integrals:      4.783 (MW) /     38.264 (MB)
	Total:                                    16.660 (MW) /    133.283 (MB)

	Size of irrep 0 of <ab|cd> integrals:      5.327 (MW) /     42.615 (MB)
	Size of irrep 1 of <ab|cd> integrals:      3.430 (MW) /     27.439 (MB)
	Size of irrep 2 of <ab|cd> integrals:      3.893 (MW) /     31.142 (MB)
	Size of irrep 3 of <ab|cd> integrals:      5.072 (MW) /     40.572 (MB)
	Total:                                    17.721 (MW) /    141.768 (MB)

	Size of irrep 0 of <Ab|Cd> integrals:     21.912 (MW) /    175.294 (MB)
	Size of irrep 1 of <Ab|Cd> integrals:     13.242 (MW) /    105.939 (MB)
	Size of irrep 2 of <Ab|Cd> integrals:     15.062 (MW) /    120.497 (MB)
	Size of irrep 3 of <Ab|Cd> integrals:     19.705 (MW) /    157.638 (MB)
	Total:                                    69.921 (MW) /    559.368 (MB)

	Size of irrep 0 of <IA|BC> integrals:      1.469 (MW) /     11.748 (MB)
	Size of irrep 1 of <IA|BC> integrals:      0.694 (MW) /      5.550 (MB)
	Size of irrep 2 of <IA|BC> integrals:      0.908 (MW) /      7.266 (MB)
	Size of irrep 3 of <IA|BC> integrals:      1.198 (MW) /      9.588 (MB)
	Total:                                     4.269 (MW) /     34.152 (MB)

	Size of irrep 0 of <ia|bc> integrals:      1.220 (MW) /      9.758 (MB)
	Size of irrep 1 of <ia|bc> integrals:      0.493 (MW) /      3.941 (MB)
	Size of irrep 2 of <ia|bc> integrals:      0.698 (MW) /      5.588 (MB)
	Size of irrep 3 of <ia|bc> integrals:      0.959 (MW) /      7.675 (MB)
	Total:                                     3.370 (MW) /     26.961 (MB)

	Size of irrep 0 of <Ia|Bc> integrals:      1.507 (MW) /     12.058 (MB)
	Size of irrep 1 of <Ia|Bc> integrals:      0.721 (MW) /      5.764 (MB)
	Size of irrep 2 of <Ia|Bc> integrals:      0.939 (MW) /      7.514 (MB)
	Size of irrep 3 of <Ia|Bc> integrals:      1.234 (MW) /      9.872 (MB)
	Total:                                     4.401 (MW) /     35.208 (MB)

	Size of irrep 0 of <iA|bC> integrals:      1.194 (MW) /      9.549 (MB)
	Size of irrep 1 of <iA|bC> integrals:      0.477 (MW) /      3.814 (MB)
	Size of irrep 2 of <iA|bC> integrals:      0.671 (MW) /      5.371 (MB)
	Size of irrep 3 of <iA|bC> integrals:      0.928 (MW) /      7.422 (MB)
	Total:                                     3.270 (MW) /     26.156 (MB)

	Size of irrep 0 of tIjAb amplitudes:       0.094 (MW) /      0.749 (MB)
	Size of irrep 1 of tIjAb amplitudes:       0.015 (MW) /      0.116 (MB)
	Size of irrep 2 of tIjAb amplitudes:       0.047 (MW) /      0.373 (MB)
	Size of irrep 3 of tIjAb amplitudes:       0.053 (MW) /      0.426 (MB)
	Total:                                     0.208 (MW) /      1.664 (MB)

	Nuclear Rep. energy          =     23.96640626476858
	SCF energy                   =   -150.87146640969274
	One-electron energy          =    -85.71204994045468
	Two-electron (AA) energy     =     10.33770655264622
	Two-electron (BB) energy     =      5.50039594469584
	Two-electron (AB) energy     =     21.27174875309165
	Two-electron energy          =     37.10985125043371
	Reference energy             =   -150.87146640969488

*** tstop() called on d3-17.compute.lan at Wed Mar 10 09:24:07 2021
Module time:
	user time   =     227.11 seconds =       3.79 minutes
	system time =      13.29 seconds =       0.22 minutes
	total time  =         29 seconds =       0.48 minutes
Total time:
	user time   =     273.83 seconds =       4.56 minutes
	system time =      15.66 seconds =       0.26 minutes
	total time  =         37 seconds =       0.62 minutes
            **************************
            *                        *
            *        CCENERGY        *
            *                        *
            **************************

    Nuclear Rep. energy (wfn)     =   23.966406264768583
    SCF energy          (wfn)     = -150.871466409692744
    Reference energy    (file100) = -150.871466409694875

    Input parameters:
    -----------------
    Wave function   =     CCSD_T
    Reference wfn   =     UHF
    Brueckner       =     No
    Memory (Mbytes) =     4000.0
    Maxiter         =     50
    R_Convergence   =     1.0e-10
    E_Convergence   =     1.0e-10
    Restart         =     Yes
    DIIS            =     Yes
    AO Basis        =     NONE
    ABCD            =     NEW
    Cache Level     =     2
    Cache Type      =     LRU
    Print Level     =     1
    Num. of threads =     12
    # Amps to Print =     10
    Print MP2 Amps? =     No
    Analyze T2 Amps =     No
    Print Pair Ener =     No
    Local CC        =     No
    SCS-MP2         =     False
    SCSN-MP2        =     False
    SCS-CCSD        =     False

MP2 correlation energy -0.4162595611177535
                Solving CC Amplitude Equations
                ------------------------------
  Iter             Energy              RMS        T1Diag      D1Diag    New D1Diag    D2Diag
  ----     ---------------------    ---------   ----------  ----------  ----------   --------
     0        -0.416259561117754    0.000e+00    0.000000    0.000000    0.000000    0.000000
     1        -0.427223297043028    5.631e-02    0.010423    0.000000    0.000000    0.000000
     2        -0.435308455175576    1.668e-02    0.010988    0.000000    0.000000    0.000000
     3        -0.437367253159129    8.546e-03    0.012862    0.000000    0.000000    0.000000
     4        -0.437244298239112    2.536e-03    0.013249    0.000000    0.000000    0.000000
     5        -0.437225149294405    1.418e-03    0.013427    0.000000    0.000000    0.000000
     6        -0.437254593384361    5.520e-04    0.013469    0.000000    0.000000    0.000000
     7        -0.437259706394121    3.169e-04    0.013474    0.000000    0.000000    0.000000
     8        -0.437260039579925    1.108e-04    0.013474    0.000000    0.000000    0.000000
     9        -0.437261439274047    6.148e-05    0.013478    0.000000    0.000000    0.000000
    10        -0.437259466658413    3.053e-05    0.013480    0.000000    0.000000    0.000000
    11        -0.437259725811536    1.534e-05    0.013481    0.000000    0.000000    0.000000
    12        -0.437259683776901    5.889e-06    0.013482    0.000000    0.000000    0.000000
    13        -0.437259738088447    2.014e-06    0.013482    0.000000    0.000000    0.000000
    14        -0.437259817024809    8.221e-07    0.013483    0.000000    0.000000    0.000000
    15        -0.437259824244860    2.431e-07    0.013483    0.000000    0.000000    0.000000
    16        -0.437259825436659    1.264e-07    0.013483    0.000000    0.000000    0.000000
    17        -0.437259826734332    4.392e-08    0.013483    0.000000    0.000000    0.000000
    18        -0.437259825885546    2.128e-08    0.013483    0.000000    0.000000    0.000000
    19        -0.437259825645057    6.832e-09    0.013483    0.000000    0.000000    0.000000
    20        -0.437259825720466    3.301e-09    0.013483    0.000000    0.000000    0.000000
    21        -0.437259825733637    1.511e-09    0.013483    0.000000    0.000000    0.000000
    22        -0.437259825738660    6.485e-10    0.013483    0.000000    0.000000    0.000000
    23        -0.437259825744520    3.060e-10    0.013483    0.000000    0.000000    0.000000
    24        -0.437259825739767    1.302e-10    0.013483    0.000000    0.000000    0.000000
    25        -0.437259825737287    5.261e-11    0.013483    0.000000    0.000000    0.000000

    Iterations converged.


    Largest TIA Amplitudes:
              5  67        -0.0142248884
              5  65        -0.0124586500
              2   2         0.0091306071
              2   6        -0.0088083247
              4  65        -0.0083771045
              6  93        -0.0082408041
              5  66        -0.0078045728
              3   1         0.0061296270
              3   6        -0.0056744481
              4  70        -0.0053374703

    Largest Tia Amplitudes:
              4  68        -0.0139780640
              4  65        -0.0138910750
              4  66        -0.0108639031
              2   6        -0.0095183381
              2   2         0.0073352326
              3   1         0.0055924186
              4  67        -0.0055888236
              1  24        -0.0052586841
              1  11         0.0047151639
              2   5        -0.0046666706

    Largest TIJAB Amplitudes:
      6   4 100  70         0.0155441309
      4   2  70  11         0.0110464359
      6   2 100  11        -0.0100685838
      6   4  54  21        -0.0091302641
      7   5  50  10        -0.0089593757
      7   3  98   9         0.0082716498
      6   4 115  81        -0.0080877312
      7   3  97   6        -0.0079781241
      6   4 115  70         0.0078841940
      6   4  93  70        -0.0078162233

    Largest Tijab Amplitudes:
      5   4  50  10        -0.0089597142
      5   2 100   8         0.0084663509
      5   4  53  10        -0.0077259071
      5   4  99  68        -0.0074394970
      5   2  99   6        -0.0071543875
      5   4  99  71        -0.0069003499
      4   2  68   6        -0.0066034201
      3   1  78  65        -0.0065369707
      5   4  99  73        -0.0064251011
      3   1  69  65        -0.0060336585

    Largest TIjAb Amplitudes:
      7   5  97  99        -0.0176505227
      6   1  54  65        -0.0172480027
      7   5  98 100        -0.0167321779
      2   3  11  11         0.0166318193
      6   1  49  65         0.0142568615
      4   3  70  11        -0.0137608138
      4   1  22  65         0.0135182632
      4   1  54  94         0.0132335687
      6   1  54  67        -0.0130978993
      4   1  54  96         0.0130763154

    SCF energy       (wfn)                    = -150.871466409692744
    Reference energy (file100)                = -150.871466409694875

    Opposite-spin MP2 correlation energy      =   -0.314353482965447
    Same-spin MP2 correlation energy          =   -0.101906078152306
    MP2 correlation energy                    =   -0.416259561117754
      * MP2 total energy                      = -151.287725970812630

    Opposite-spin CCSD correlation energy     =   -0.341952633609727
    Same-spin CCSD correlation energy         =   -0.095307192127561
    CCSD correlation energy                   =   -0.437259825737287
      * CCSD total energy                     = -151.308726235432175

            **************************
            *                        *
            *        CCTRIPLES       *
            *                        *
            **************************


    Wave function   =    CCSD_T
    Reference wfn   =      UHF

    Nuclear Rep. energy (wfn)                =   23.966406264768583
    SCF energy          (wfn)                = -150.871466409692744
    Reference energy    (file100)            = -150.871466409694875
    CCSD energy         (file100)            =   -0.437259825737287
    Total CCSD energy   (file100)            = -151.308726235432175

    Number of ijk index combinations:
    Spin Case AAA:                                  56
    Spin Case BBB:                                  20
    Spin Case AAB:                                 168
    Spin Case ABB:                                 120
    AAA (T) energy                             =   -0.000401542858587
    BBB (T) energy                             =   -0.000203074347891
    AAB (T) energy                             =   -0.006713380964301
    ABB (T) energy                             =   -0.004984105608016
    (T) energy                                   =   -0.012302103778795
      * CCSD(T) total energy                     = -151.321028339210955

Stephenergy -151.32102833921095
    Psi4 stopped on: Wednesday, 10 March 2021 09:25AM
    Psi4 wall time for execution: 0:01:31.85

*** Psi4 exiting successfully. Buy a developer a beer!
