
    -----------------------------------------------------------------------
          Psi4: An Open-Source Ab Initio Electronic Structure Package
                               Psi4 1.3.2 release

                         Git: Rev {HEAD} ecbda83 


    R. M. Parrish, L. A. Burns, D. G. A. Smith, A. C. Simmonett,
    A. E. DePrince III, E. G. Hohenstein, U. Bozkaya, A. Yu. Sokolov,
    R. Di Remigio, R. M. Richard, J. F. Gonthier, A. M. James,
    H. R. McAlexander, A. Kumar, M. Saitow, X. Wang, B. P. Pritchard,
    P. Verma, H. F. Schaefer III, K. Patkowski, R. A. King, E. F. Valeev,
    F. A. Evangelista, J. M. Turney, T. D. Crawford, and C. D. Sherrill,
    J. Chem. Theory Comput. 13(7) pp 3185--3197 (2017).
    (doi: 10.1021/acs.jctc.7b00174)


                         Additional Contributions by
    P. Kraus, H. Kruse, M. H. Lechner, M. C. Schieber, R. A. Shaw,
    A. Alenaizan, R. Galvelis, Z. L. Glick, S. Lehtola, and J. P. Misiewicz

    -----------------------------------------------------------------------


    Psi4 started on: Monday, 08 March 2021 09:44AM

    Process ID: 78801
    Host:       d3-15.compute.lan
    PSIDATADIR: /apps/gb/PSI4/1.3.2/share/psi4
    Memory:     500.0 MiB
    Threads:    12
    
  ==> Input File <==

--------------------------------------------------------------------------
memory 4 GB

molecule  {
0 1
O    0.000000000000    0.000000000000   -0.066128900336
H    0.000000000000   -0.756820567568    0.524756818364
H   -0.000000000000    0.756820567568    0.524756818364
}
set {
basis aug-cc-pvtz
reference uhf
e_convergence 10
scf_type pk
freeze_core true
}

set ccenergy {
e_convergence 10
r_convergence 10
}

e = energy('ccsd(t)')

print_out('Stephenergy {}'.format(e))

--------------------------------------------------------------------------

  Memory set to   3.725 GiB by Python driver.

*** tstart() called on d3-15.compute.lan
*** at Mon Mar  8 09:44:19 2021

   => Loading Basis Set <=

    Name: AUG-CC-PVTZ
    Role: ORBITAL
    Keyword: BASIS
    atoms 1   entry O          line   327 file /apps/gb/PSI4/1.3.2/share/psi4/basis/aug-cc-pvtz.gbs 
    atoms 2-3 entry H          line    36 file /apps/gb/PSI4/1.3.2/share/psi4/basis/aug-cc-pvtz.gbs 


         ---------------------------------------------------------
                                   SCF
               by Justin Turney, Rob Parrish, Andy Simmonett
                          and Daniel G. A. Smith
                              UHF Reference
                       12 Threads,   3814 MiB Core
         ---------------------------------------------------------

  ==> Geometry <==

    Molecular point group: c2v
    Full point group: C2v

    Geometry (in Angstrom), charge = 0, multiplicity = 1:

       Center              X                  Y                   Z               Mass       
    ------------   -----------------  -----------------  -----------------  -----------------
         O            0.000000000000     0.000000000000    -0.066128900336    15.994914619570
         H            0.000000000000    -0.756820567568     0.524756818364     1.007825032230
         H           -0.000000000000     0.756820567568     0.524756818364     1.007825032230

  Running in c2v symmetry.

  Rotational constants: A =     26.97241  B =     14.60143  C =      9.47316 [cm^-1]
  Rotational constants: A = 808612.55248  B = 437739.97668  C = 283998.33240 [MHz]
  Nuclear repulsion =    9.167679054459267

  Charge       = 0
  Multiplicity = 1
  Electrons    = 10
  Nalpha       = 5
  Nbeta        = 5

  ==> Algorithm <==

  SCF Algorithm Type is PK.
  DIIS enabled.
  MOM disabled.
  Fractional occupation disabled.
  Guess Type is SAD.
  Energy threshold   = 1.00e-10
  Density threshold  = 1.00e-08
  Integral threshold = 0.00e+00

  ==> Primary Basis <==

  Basis Set: AUG-CC-PVTZ
    Blend: AUG-CC-PVTZ
    Number of shells: 32
    Number of basis function: 92
    Number of Cartesian functions: 105
    Spherical Harmonics?: true
    Max angular momentum: 3

  ==> Pre-Iterations <==

   -------------------------------------------------------
    Irrep   Nso     Nmo     Nalpha   Nbeta   Ndocc  Nsocc
   -------------------------------------------------------
     A1        35      35       0       0       0       0
     A2        12      12       0       0       0       0
     B1        18      18       0       0       0       0
     B2        27      27       0       0       0       0
   -------------------------------------------------------
    Total      92      92       5       5       5       0
   -------------------------------------------------------

  ==> Integral Setup <==

  Using in-core PK algorithm.
   Calculation information:
      Number of atoms:                   3
      Number of AO shells:              32
      Number of primitives:             52
      Number of atomic orbitals:       105
      Number of basis functions:        92

      Integral cutoff                 1.00e-12
      Number of threads:                12

  Performing in-core PK
  Using 18305562 doubles for integral storage.
  We computed 240258 shell quartets total.
  Whereas there are 139656 unique shell quartets.
    72.04 percent of shell quartets recomputed by reordering.

  ==> DiskJK: Disk-Based J/K Matrices <==

    J tasked:                  Yes
    K tasked:                  Yes
    wK tasked:                  No
    Memory [MiB]:             2861
    Schwarz Cutoff:          1E-12

    OpenMP threads:             12

  Minimum eigenvalue in the overlap matrix is 3.8789968535E-04.
  Using Symmetric Orthogonalization.

  SCF Guess: Superposition of Atomic Densities via on-the-fly atomic UHF.

  ==> Iterations <==

                        Total Energy        Delta E     RMS |[F,P]|

   @UHF iter SAD:   -75.47517726797868   -7.54752e+01   0.00000e+00 
   @UHF iter   1:   -75.97595928790095   -5.00782e-01   9.51815e-03 DIIS
   @UHF iter   2:   -76.02844025794505   -5.24810e-02   6.49481e-03 DIIS
   @UHF iter   3:   -76.05995374910242   -3.15135e-02   4.41102e-04 DIIS
   @UHF iter   4:   -76.06034317289510   -3.89424e-04   1.05738e-04 DIIS
   @UHF iter   5:   -76.06036758282266   -2.44099e-05   2.40172e-05 DIIS
   @UHF iter   6:   -76.06036957957389   -1.99675e-06   5.25655e-06 DIIS
   @UHF iter   7:   -76.06036968473184   -1.05158e-07   9.45832e-07 DIIS
   @UHF iter   8:   -76.06036968772474   -2.99291e-09   1.58666e-07 DIIS
   @UHF iter   9:   -76.06036968779064   -6.58957e-11   3.89386e-08 DIIS
   @UHF iter  10:   -76.06036968779446   -3.82272e-12   5.72287e-09 DIIS
  Energy and wave function converged.


  ==> Post-Iterations <==

   @Spin Contamination Metric:   1.953992523E-14
   @S^2 Expected:                0.000000000E+00
   @S^2 Observed:                1.953992523E-14
   @S   Expected:                0.000000000E+00
   @S   Observed:                0.000000000E+00

    Orbital Energies [Eh]
    ---------------------

    Alpha Occupied:                                                       

       1A1   -20.567918     2A1    -1.352433     1B2    -0.715316  
       3A1    -0.585317     1B1    -0.510260  

    Alpha Virtual:                                                        

       4A1     0.029377     2B2     0.047702     5A1     0.135882  
       2B1     0.158736     6A1     0.175217     3B2     0.183097  
       4B2     0.227208     7A1     0.244986     1A2     0.265428  
       3B1     0.299990     8A1     0.310127     5B2     0.365840  
       9A1     0.437574     6B2     0.466251     7B2     0.599208  
      10A1     0.658661    11A1     0.707945     2A2     0.722685  
       4B1     0.731612    12A1     0.830966     5B1     0.846518  
      13A1     0.892008     8B2     0.912726     6B1     0.918017  
       3A2     0.922534     9B2     0.930973    14A1     0.961330  
      15A1     1.021305    10B2     1.043471     7B1     1.082616  
      11B2     1.108607     4A2     1.176500    16A1     1.182293  
      12B2     1.260590     5A2     1.510414    17A1     1.534334  
       8B1     1.583066    18A1     1.804820    13B2     1.821891  
      14B2     1.985082    19A1     2.118410     9B1     2.262800  
       6A2     2.315895    20A1     2.326582    21A1     2.418476  
      10B1     2.420847    15B2     2.443057    22A1     2.479693  
      16B2     2.676296    11B1     2.697657    23A1     2.772077  
      17B2     2.814943     7A2     2.884472    18B2     3.654173  
      24A1     3.741860     8A2     4.018781    12B1     4.083762  
      25A1     4.163104    19B2     4.249005    13B1     4.286550  
      26A1     4.373499     9A2     4.377548    14B1     4.405683  
      20B2     4.518442    27A1     4.726135    21B2     4.845931  
      10A2     5.150222    22B2     5.150726    23B2     5.250436  
      28A1     5.326535    15B1     5.524182    29A1     5.662523  
      30A1     6.179284    24B2     6.512494    16B1     6.709214  
      31A1     6.900388    17B1     7.132156    18B1     7.252093  
      25B2     7.299944    11A2     7.313923    32A1     7.329126  
      12A2     7.354556    33A1     7.533439    34A1     7.896660  
      26B2     7.925774    27B2     8.805241    35A1    15.741205  

    Beta Occupied:                                                        

       1A1   -20.567918     2A1    -1.352433     1B2    -0.715316  
       3A1    -0.585317     1B1    -0.510260  

    Beta Virtual:                                                         

       4A1     0.029377     2B2     0.047702     5A1     0.135882  
       2B1     0.158736     6A1     0.175217     3B2     0.183097  
       4B2     0.227208     7A1     0.244986     1A2     0.265428  
       3B1     0.299990     8A1     0.310127     5B2     0.365840  
       9A1     0.437574     6B2     0.466251     7B2     0.599208  
      10A1     0.658661    11A1     0.707945     2A2     0.722685  
       4B1     0.731612    12A1     0.830966     5B1     0.846518  
      13A1     0.892008     8B2     0.912726     6B1     0.918017  
       3A2     0.922534     9B2     0.930973    14A1     0.961330  
      15A1     1.021305    10B2     1.043471     7B1     1.082616  
      11B2     1.108607     4A2     1.176500    16A1     1.182293  
      12B2     1.260590     5A2     1.510414    17A1     1.534334  
       8B1     1.583066    18A1     1.804820    13B2     1.821891  
      14B2     1.985082    19A1     2.118410     9B1     2.262800  
       6A2     2.315895    20A1     2.326582    21A1     2.418476  
      10B1     2.420847    15B2     2.443057    22A1     2.479693  
      16B2     2.676296    11B1     2.697657    23A1     2.772077  
      17B2     2.814943     7A2     2.884472    18B2     3.654173  
      24A1     3.741860     8A2     4.018781    12B1     4.083762  
      25A1     4.163104    19B2     4.249005    13B1     4.286550  
      26A1     4.373499     9A2     4.377548    14B1     4.405683  
      20B2     4.518442    27A1     4.726135    21B2     4.845931  
      10A2     5.150222    22B2     5.150726    23B2     5.250436  
      28A1     5.326535    15B1     5.524182    29A1     5.662523  
      30A1     6.179284    24B2     6.512494    16B1     6.709214  
      31A1     6.900388    17B1     7.132156    18B1     7.252093  
      25B2     7.299944    11A2     7.313923    32A1     7.329126  
      12A2     7.354556    33A1     7.533439    34A1     7.896660  
      26B2     7.925774    27B2     8.805241    35A1    15.741205  

    Final Occupation by Irrep:
             A1    A2    B1    B2 
    DOCC [     3,    0,    1,    1 ]
    SOCC [     0,    0,    0,    0 ]

  @UHF Final Energy:   -76.06036968779446

   => Energetics <=

    Nuclear Repulsion Energy =              9.1676790544592670
    One-Electron Energy =                -122.9936077236493190
    Two-Electron Energy =                  37.7655589813955785
    Total Energy =                        -76.0603696877944628

  UHF NO Occupations:
  HONO-2 :    1 B1 2.0000000
  HONO-1 :    3 A1 2.0000000
  HONO-0 :    1 B2 2.0000000
  LUNO+0 :    4 A1 0.0000000
  LUNO+1 :    5 A1 0.0000000
  LUNO+2 :    6 A1 0.0000000
  LUNO+3 :    2 B1 0.0000000


Computation Completed


Properties will be evaluated at   0.000000,   0.000000,   0.000000 [a0]

Properties computed using the SCF density matrix

  Nuclear Dipole Moment: [e a0]
     X:     0.0000      Y:     0.0000      Z:     0.9836

  Electronic Dipole Moment: [e a0]
     X:     0.0000      Y:     0.0000      Z:    -0.1995

  Dipole Moment: [e a0]
     X:     0.0000      Y:     0.0000      Z:     0.7840     Total:     0.7840

  Dipole Moment: [D]
     X:     0.0000      Y:     0.0000      Z:     1.9928     Total:     1.9928


*** tstop() called on d3-15.compute.lan at Mon Mar  8 09:44:21 2021
Module time:
	user time   =      16.42 seconds =       0.27 minutes
	system time =       0.94 seconds =       0.02 minutes
	total time  =          2 seconds =       0.03 minutes
Total time:
	user time   =      16.42 seconds =       0.27 minutes
	system time =       0.94 seconds =       0.02 minutes
	total time  =          2 seconds =       0.03 minutes
 MINTS: Wrapper to libmints.
   by Justin Turney

   Calculation information:
      Number of threads:                12
      Number of atoms:                   3
      Number of AO shells:              32
      Number of SO shells:              23
      Number of primitives:             52
      Number of atomic orbitals:       105
      Number of basis functions:        92

      Number of irreps:                  4
      Integral cutoff                 0.00e+00
      Number of functions per irrep: [  35   12   18   27 ]

 OEINTS: Overlap, kinetic, potential, dipole, and quadrupole integrals
         stored in file 35.

      Computing two-electron integrals...done
      Computed 2227059 non-zero two-electron integrals.
        Stored in file 33.


*** tstart() called on d3-15.compute.lan
*** at Mon Mar  8 09:44:22 2021


	Wfn Parameters:
	--------------------
	Wavefunction         = CCSD_T
	Number of irreps     = 4
	Number of MOs        = 92
	Number of active MOs = 91
	AO-Basis             = NONE
	Semicanonical        = false
	Reference            = UHF
	Print Level          = 1

	IRREP	# MOs	# FZDC	# DOCC	# SOCC	# VIRT	# FZVR
	-----	-----	------	------	------	------	------
	 A1	   35	    1	    2	    0	    32	    0
	 A2	   12	    0	    0	    0	    12	    0
	 B1	   18	    0	    1	    0	    17	    0
	 B2	   27	    0	    1	    0	    26	    0
	Transforming integrals...
	IWL integrals will be deleted.
	(OO|OO)...
	Presorting SO-basis two-electron integrals.
	Sorting File: SO Ints (nn|nn) nbuckets = 1
	Transforming the one-electron integrals and constructing Fock matrices
	Starting AA/AB first half-transformation.
	Sorting AA/AB half-transformed integrals.
	Starting BB first half-transformation.
	Sorting BB half-transformed integrals.
	First half integral transformation complete.
	Starting AA second half-transformation.
	Starting AB second half-transformation.
	Starting BB second half-transformation.
	Two-electron integral transformation complete.
	(OO|OV)...
	Starting AA second half-transformation.
	Starting AB second half-transformation.
	Starting BB second half-transformation.
	Two-electron integral transformation complete.
	(OO|VV)...
	Starting AA second half-transformation.
	Starting AB second half-transformation.
	Starting BB second half-transformation.
	Two-electron integral transformation complete.
	(OV|OO)...
	Starting AA/AB first half-transformation.
	Sorting AA/AB half-transformed integrals.
	Starting BB first half-transformation.
	Sorting BB half-transformed integrals.
	First half integral transformation complete.
	Starting AA second half-transformation.
	Starting AB second half-transformation.
	Starting BB second half-transformation.
	Two-electron integral transformation complete.
	(OV|OV)...
	Starting AA second half-transformation.
	Starting AB second half-transformation.
	Starting BB second half-transformation.
	Two-electron integral transformation complete.
	(OV|VV)...
	Starting AA second half-transformation.
	Starting AB second half-transformation.
	Starting BB second half-transformation.
	Two-electron integral transformation complete.
	(VV|OO)...
	Starting AA/AB first half-transformation.
	Sorting AA/AB half-transformed integrals.
	Starting BB first half-transformation.
	Sorting BB half-transformed integrals.
	First half integral transformation complete.
	Starting AA second half-transformation.
	Starting AB second half-transformation.
	Starting BB second half-transformation.
	Two-electron integral transformation complete.
	(VV|OV)...
	Starting AA second half-transformation.
	Starting AB second half-transformation.
	Starting BB second half-transformation.
	Two-electron integral transformation complete.
	(VV|VV)...
	Starting AA second half-transformation.
	Starting AB second half-transformation.
	Starting BB second half-transformation.
	Two-electron integral transformation complete.
	Frozen core energy     =    -61.30997592544669

	Size of irrep 0 of <AB|CD> integrals:      1.047 (MW) /      8.372 (MB)
	Size of irrep 1 of <AB|CD> integrals:      0.682 (MW) /      5.458 (MB)
	Size of irrep 2 of <AB|CD> integrals:      0.733 (MW) /      5.862 (MB)
	Size of irrep 3 of <AB|CD> integrals:      1.073 (MW) /      8.586 (MB)
	Total:                                     3.535 (MW) /     28.279 (MB)

	Size of irrep 0 of <ab|cd> integrals:      1.047 (MW) /      8.372 (MB)
	Size of irrep 1 of <ab|cd> integrals:      0.682 (MW) /      5.458 (MB)
	Size of irrep 2 of <ab|cd> integrals:      0.733 (MW) /      5.862 (MB)
	Size of irrep 3 of <ab|cd> integrals:      1.073 (MW) /      8.586 (MB)
	Total:                                     3.535 (MW) /     28.279 (MB)

	Size of irrep 0 of <Ab|Cd> integrals:      4.550 (MW) /     36.398 (MB)
	Size of irrep 1 of <Ab|Cd> integrals:      2.729 (MW) /     21.833 (MB)
	Size of irrep 2 of <Ab|Cd> integrals:      2.931 (MW) /     23.448 (MB)
	Size of irrep 3 of <Ab|Cd> integrals:      4.293 (MW) /     34.345 (MB)
	Total:                                    14.503 (MW) /    116.023 (MB)

	Size of irrep 0 of <IA|BC> integrals:      0.228 (MW) /      1.826 (MB)
	Size of irrep 1 of <IA|BC> integrals:      0.111 (MW) /      0.885 (MB)
	Size of irrep 2 of <IA|BC> integrals:      0.134 (MW) /      1.068 (MB)
	Size of irrep 3 of <IA|BC> integrals:      0.199 (MW) /      1.591 (MB)
	Total:                                     0.671 (MW) /      5.371 (MB)

	Size of irrep 0 of <ia|bc> integrals:      0.228 (MW) /      1.826 (MB)
	Size of irrep 1 of <ia|bc> integrals:      0.111 (MW) /      0.885 (MB)
	Size of irrep 2 of <ia|bc> integrals:      0.134 (MW) /      1.068 (MB)
	Size of irrep 3 of <ia|bc> integrals:      0.199 (MW) /      1.591 (MB)
	Total:                                     0.671 (MW) /      5.371 (MB)

	Size of irrep 0 of <Ia|Bc> integrals:      0.228 (MW) /      1.826 (MB)
	Size of irrep 1 of <Ia|Bc> integrals:      0.111 (MW) /      0.885 (MB)
	Size of irrep 2 of <Ia|Bc> integrals:      0.134 (MW) /      1.068 (MB)
	Size of irrep 3 of <Ia|Bc> integrals:      0.199 (MW) /      1.591 (MB)
	Total:                                     0.671 (MW) /      5.371 (MB)

	Size of irrep 0 of <iA|bC> integrals:      0.228 (MW) /      1.826 (MB)
	Size of irrep 1 of <iA|bC> integrals:      0.111 (MW) /      0.885 (MB)
	Size of irrep 2 of <iA|bC> integrals:      0.134 (MW) /      1.068 (MB)
	Size of irrep 3 of <iA|bC> integrals:      0.199 (MW) /      1.591 (MB)
	Total:                                     0.671 (MW) /      5.371 (MB)

	Size of irrep 0 of tIjAb amplitudes:       0.013 (MW) /      0.102 (MB)
	Size of irrep 1 of tIjAb amplitudes:       0.003 (MW) /      0.026 (MB)
	Size of irrep 2 of tIjAb amplitudes:       0.007 (MW) /      0.055 (MB)
	Size of irrep 3 of tIjAb amplitudes:       0.008 (MW) /      0.066 (MB)
	Total:                                     0.031 (MW) /      0.250 (MB)

	Nuclear Rep. energy          =      9.16767905445927
	SCF energy                   =    -76.06036968779446
	One-electron energy          =    -41.50949194765388
	Two-electron (AA) energy     =      3.41951966634871
	Two-electron (BB) energy     =      3.41951966634871
	Two-electron (AB) energy     =     10.75237979814946
	Two-electron energy          =     17.59141913084689
	Reference energy             =    -76.06036968779441

*** tstop() called on d3-15.compute.lan at Mon Mar  8 09:44:40 2021
Module time:
	user time   =     160.98 seconds =       2.68 minutes
	system time =       8.96 seconds =       0.15 minutes
	total time  =         18 seconds =       0.30 minutes
Total time:
	user time   =     181.21 seconds =       3.02 minutes
	system time =      10.16 seconds =       0.17 minutes
	total time  =         21 seconds =       0.35 minutes
            **************************
            *                        *
            *        CCENERGY        *
            *                        *
            **************************

    Nuclear Rep. energy (wfn)     =    9.167679054459267
    SCF energy          (wfn)     =  -76.060369687794463
    Reference energy    (file100) =  -76.060369687794406

    Input parameters:
    -----------------
    Wave function   =     CCSD_T
    Reference wfn   =     UHF
    Brueckner       =     No
    Memory (Mbytes) =     4000.0
    Maxiter         =     50
    R_Convergence   =     1.0e-10
    E_Convergence   =     1.0e-10
    Restart         =     Yes
    DIIS            =     Yes
    AO Basis        =     NONE
    ABCD            =     NEW
    Cache Level     =     2
    Cache Type      =     LRU
    Print Level     =     1
    Num. of threads =     12
    # Amps to Print =     10
    Print MP2 Amps? =     No
    Analyze T2 Amps =     No
    Print Pair Ener =     No
    Local CC        =     No
    SCS-MP2         =     False
    SCSN-MP2        =     False
    SCS-CCSD        =     False

MP2 correlation energy -0.2686196521706484
                Solving CC Amplitude Equations
                ------------------------------
  Iter             Energy              RMS        T1Diag      D1Diag    New D1Diag    D2Diag
  ----     ---------------------    ---------   ----------  ----------  ----------   --------
     0        -0.268619652170648    0.000e+00    0.000000    0.000000    0.000000    0.000000
     1        -0.267135793327493    4.761e-02    0.012083    0.000000    0.000000    0.000000
     2        -0.272199796697646    1.310e-02    0.011860    0.000000    0.000000    0.000000
     3        -0.273415354346116    6.157e-03    0.013709    0.000000    0.000000    0.000000
     4        -0.273310934391518    1.238e-03    0.014031    0.000000    0.000000    0.000000
     5        -0.273294610568563    4.561e-04    0.014163    0.000000    0.000000    0.000000
     6        -0.273295483169073    1.136e-04    0.014193    0.000000    0.000000    0.000000
     7        -0.273294270503615    3.838e-05    0.014199    0.000000    0.000000    0.000000
     8        -0.273294310157798    1.048e-05    0.014201    0.000000    0.000000    0.000000
     9        -0.273294356543904    3.212e-06    0.014201    0.000000    0.000000    0.000000
    10        -0.273294237413706    1.295e-06    0.014201    0.000000    0.000000    0.000000
    11        -0.273294254571592    4.452e-07    0.014201    0.000000    0.000000    0.000000
    12        -0.273294249639898    1.670e-07    0.014201    0.000000    0.000000    0.000000
    13        -0.273294251374552    4.937e-08    0.014201    0.000000    0.000000    0.000000
    14        -0.273294252553605    1.313e-08    0.014201    0.000000    0.000000    0.000000
    15        -0.273294252602564    4.003e-09    0.014201    0.000000    0.000000    0.000000
    16        -0.273294252603713    1.224e-09    0.014201    0.000000    0.000000    0.000000
    17        -0.273294252612142    4.204e-10    0.014201    0.000000    0.000000    0.000000
    18        -0.273294252609099    1.090e-10    0.014201    0.000000    0.000000    0.000000
    19        -0.273294252608718    3.276e-11    0.014201    0.000000    0.000000    0.000000

    Iterations converged.


    Largest TIA Amplitudes:
              2  44        -0.0150795212
              2  45        -0.0130219832
              1   1         0.0085017143
              1   4        -0.0077903912
              3  73         0.0054240253
              2  54         0.0042751507
              3  69         0.0037844284
              2  47        -0.0036732162
              3  80         0.0036050280
              1  23         0.0033897742

    Largest Tia Amplitudes:
              2  44        -0.0150795212
              2  45        -0.0130219832
              1   1         0.0085017143
              1   4        -0.0077903912
              3  73         0.0054240253
              2  54         0.0042751507
              3  69         0.0037844284
              2  47        -0.0036732162
              3  80         0.0036050280
              1  23         0.0033897742

    Largest TIJAB Amplitudes:
      2   1  46   7        -0.0095734317
      3   1  66   6        -0.0093922398
      3   2  33   6        -0.0085506236
      3   1  65   9         0.0081081922
      2   1  49   9         0.0079263349
      3   2  65  49        -0.0076232752
      3   1  66  13         0.0074435566
      3   2  65  44        -0.0074052173
      2   1  48   9         0.0072283590
      3   2  65  45        -0.0071846607

    Largest Tijab Amplitudes:
      2   1  46   7        -0.0095734317
      3   1  66   6        -0.0093922398
      3   2  33   6        -0.0085506236
      3   1  65   9         0.0081081922
      2   1  49   9         0.0079263349
      3   2  65  49        -0.0076232752
      3   1  66  13         0.0074435566
      3   2  65  44        -0.0074052173
      2   1  48   9         0.0072283590
      3   2  65  45        -0.0071846607

    Largest TIjAb Amplitudes:
      3   3  65  65        -0.0215299447
      1   1   9   9        -0.0198959298
      2   2  49  49        -0.0156173012
      3   3  65  69        -0.0155569788
      3   3  69  65        -0.0155569788
      3   3  66  66        -0.0148891137
      1   1  66  66        -0.0137964897
      2   2  48  48        -0.0134255386
      3   3  69  69        -0.0132488914
      1   3   9  65         0.0128283486

    SCF energy       (wfn)                    =  -76.060369687794463
    Reference energy (file100)                =  -76.060369687794406

    Opposite-spin MP2 correlation energy      =   -0.203419979864096
    Same-spin MP2 correlation energy          =   -0.065199672306552
    MP2 correlation energy                    =   -0.268619652170648
      * MP2 total energy                      =  -76.328989339965048

    Opposite-spin CCSD correlation energy     =   -0.215399480600459
    Same-spin CCSD correlation energy         =   -0.057894772008259
    CCSD correlation energy                   =   -0.273294252608718
      * CCSD total energy                     =  -76.333663940403127

            **************************
            *                        *
            *        CCTRIPLES       *
            *                        *
            **************************


    Wave function   =    CCSD_T
    Reference wfn   =      UHF

    Nuclear Rep. energy (wfn)                =    9.167679054459267
    SCF energy          (wfn)                =  -76.060369687794463
    Reference energy    (file100)            =  -76.060369687794406
    CCSD energy         (file100)            =   -0.273294252608718
    Total CCSD energy   (file100)            =  -76.333663940403127

    Number of ijk index combinations:
    Spin Case AAA:                                   4
    Spin Case BBB:                                   4
    Spin Case AAB:                                  24
    Spin Case ABB:                                  24
    AAA (T) energy                             =   -0.000193346411180
    BBB (T) energy                             =   -0.000193346411180
    AAB (T) energy                             =   -0.004135249352906
    ABB (T) energy                             =   -0.004135249352906
    (T) energy                                   =   -0.008657191528171
      * CCSD(T) total energy                     =  -76.342321131931300

Stephenergy -76.3423211319313
    Psi4 stopped on: Monday, 08 March 2021 09:44AM
    Psi4 wall time for execution: 0:00:32.80

*** Psi4 exiting successfully. Buy a developer a beer!
