
    -----------------------------------------------------------------------
          Psi4: An Open-Source Ab Initio Electronic Structure Package
                               Psi4 1.3.2 release

                         Git: Rev {HEAD} ecbda83 


    R. M. Parrish, L. A. Burns, D. G. A. Smith, A. C. Simmonett,
    A. E. DePrince III, E. G. Hohenstein, U. Bozkaya, A. Yu. Sokolov,
    R. Di Remigio, R. M. Richard, J. F. Gonthier, A. M. James,
    H. R. McAlexander, A. Kumar, M. Saitow, X. Wang, B. P. Pritchard,
    P. Verma, H. F. Schaefer III, K. Patkowski, R. A. King, E. F. Valeev,
    F. A. Evangelista, J. M. Turney, T. D. Crawford, and C. D. Sherrill,
    J. Chem. Theory Comput. 13(7) pp 3185--3197 (2017).
    (doi: 10.1021/acs.jctc.7b00174)


                         Additional Contributions by
    P. Kraus, H. Kruse, M. H. Lechner, M. C. Schieber, R. A. Shaw,
    A. Alenaizan, R. Galvelis, Z. L. Glick, S. Lehtola, and J. P. Misiewicz

    -----------------------------------------------------------------------


    Psi4 started on: Monday, 08 March 2021 05:52PM

    Process ID: 216132
    Host:       c5-18.compute.lan
    PSIDATADIR: /apps/gb/PSI4/1.3.2/share/psi4
    Memory:     500.0 MiB
    Threads:    12
    
  ==> Input File <==

--------------------------------------------------------------------------
memory 4 GB

molecule  {
0 3
O    0.000000000000    0.000000000000    1.270171675013
H    0.000000000000   -0.757966075568    1.859550751513
H   -0.000000000000    0.757966075568    1.859550751513
O    0.000000000000    0.000000000000   -1.504508880387
}
set {
basis aug-cc-pvtz
reference uhf
e_convergence 10
scf_type pk
freeze_core true
}

set ccenergy {
e_convergence 10
r_convergence 10
}

e = energy('ccsd(t)')

print_out('Stephenergy {}'.format(e))

--------------------------------------------------------------------------

  Memory set to   3.725 GiB by Python driver.

*** tstart() called on c5-18.compute.lan
*** at Mon Mar  8 17:52:50 2021

   => Loading Basis Set <=

    Name: AUG-CC-PVTZ
    Role: ORBITAL
    Keyword: BASIS
    atoms 1, 4 entry O          line   327 file /apps/gb/PSI4/1.3.2/share/psi4/basis/aug-cc-pvtz.gbs 
    atoms 2-3  entry H          line    36 file /apps/gb/PSI4/1.3.2/share/psi4/basis/aug-cc-pvtz.gbs 


         ---------------------------------------------------------
                                   SCF
               by Justin Turney, Rob Parrish, Andy Simmonett
                          and Daniel G. A. Smith
                              UHF Reference
                       12 Threads,   3814 MiB Core
         ---------------------------------------------------------

  ==> Geometry <==

    Molecular point group: c2v
    Full point group: C2v

    Geometry (in Angstrom), charge = 0, multiplicity = 3:

       Center              X                  Y                   Z               Mass       
    ------------   -----------------  -----------------  -----------------  -----------------
         O           -0.000000000000     0.000000000000     1.270171675013    15.994914619570
         H            0.000000000000    -0.757966075568     1.859550751513     1.007825032230
         H           -0.000000000000     0.757966075568     1.859550751513     1.007825032230
         O           -0.000000000000     0.000000000000    -1.504508880387    15.994914619570

  Running in c2v symmetry.

  Rotational constants: A =     14.55733  B =      0.24438  C =      0.24035 [cm^-1]
  Rotational constants: A = 436417.87070  B =   7326.41583  C =   7205.45345 [MHz]
  Nuclear repulsion =   23.828508301072755

  Charge       = 0
  Multiplicity = 3
  Electrons    = 18
  Nalpha       = 10
  Nbeta        = 8

  ==> Algorithm <==

  SCF Algorithm Type is PK.
  DIIS enabled.
  MOM disabled.
  Fractional occupation disabled.
  Guess Type is SAD.
  Energy threshold   = 1.00e-10
  Density threshold  = 1.00e-08
  Integral threshold = 0.00e+00

  ==> Primary Basis <==

  Basis Set: AUG-CC-PVTZ
    Blend: AUG-CC-PVTZ
    Number of shells: 46
    Number of basis function: 138
    Number of Cartesian functions: 160
    Spherical Harmonics?: true
    Max angular momentum: 3

  ==> Pre-Iterations <==

   -------------------------------------------------------
    Irrep   Nso     Nmo     Nalpha   Nbeta   Ndocc  Nsocc
   -------------------------------------------------------
     A1        54      54       0       0       0       0
     A2        17      17       0       0       0       0
     B1        29      29       0       0       0       0
     B2        38      38       0       0       0       0
   -------------------------------------------------------
    Total     138     138      10       8       8       2
   -------------------------------------------------------

  ==> Integral Setup <==

  Using in-core PK algorithm.
   Calculation information:
      Number of atoms:                   4
      Number of AO shells:              46
      Number of primitives:             82
      Number of atomic orbitals:       160
      Number of basis functions:       138

      Integral cutoff                 1.00e-12
      Number of threads:                12

  Performing in-core PK
  Using 91996872 doubles for integral storage.
  We computed 909561 shell quartets total.
  Whereas there are 584821 unique shell quartets.
    55.53 percent of shell quartets recomputed by reordering.

  ==> DiskJK: Disk-Based J/K Matrices <==

    J tasked:                  Yes
    K tasked:                  Yes
    wK tasked:                  No
    Memory [MiB]:             2861
    Schwarz Cutoff:          1E-12

    OpenMP threads:             12

  Minimum eigenvalue in the overlap matrix is 3.2271185785E-04.
  Using Symmetric Orthogonalization.

  SCF Guess: Superposition of Atomic Densities via on-the-fly atomic UHF.

  ==> Iterations <==

                        Total Energy        Delta E     RMS |[F,P]|

   @UHF iter SAD:  -149.38323789303877   -1.49383e+02   0.00000e+00 
   @UHF iter   1:  -150.77005427329453   -1.38682e+00   6.70041e-03 DIIS
   @UHF iter   2:  -150.84084125860801   -7.07870e-02   4.25461e-03 DIIS
   @UHF iter   3:  -150.87209041662373   -3.12492e-02   5.58266e-04 DIIS
   @UHF iter   4:  -150.87345997091603   -1.36955e-03   1.70922e-04 DIIS
   @UHF iter   5:  -150.87359366472626   -1.33694e-04   6.98065e-05 DIIS
   @UHF iter   6:  -150.87362677135604   -3.31066e-05   2.08467e-05 DIIS
   @UHF iter   7:  -150.87362987249517   -3.10114e-06   5.35071e-06 DIIS
   @UHF iter   8:  -150.87363009631531   -2.23820e-07   1.48692e-06 DIIS
   @UHF iter   9:  -150.87363011311652   -1.68012e-08   3.66590e-07 DIIS
   @UHF iter  10:  -150.87363011419512   -1.07860e-09   1.75501e-07 DIIS
   @UHF iter  11:  -150.87363011452857   -3.33443e-10   6.85854e-08 DIIS
   @UHF iter  12:  -150.87363011458092   -5.23528e-11   1.47458e-08 DIIS
   @UHF iter  13:  -150.87363011458297   -2.04636e-12   4.42226e-09 DIIS
  Energy and wave function converged.


  ==> Post-Iterations <==

   @Spin Contamination Metric:   9.530106008E-03
   @S^2 Expected:                2.000000000E+00
   @S^2 Observed:                2.009530106E+00
   @S   Expected:                1.000000000E+00
   @S   Observed:                1.000000000E+00

    Orbital Energies [Eh]
    ---------------------

    Alpha Occupied:                                                       

       1A1   -20.684537     2A1   -20.571001     3A1    -1.393961  
       4A1    -1.356123     1B2    -0.719254     5A1    -0.688227  
       1B1    -0.685260     6A1    -0.586978     2B2    -0.586269  
       2B1    -0.514130  

    Alpha Virtual:                                                        

       7A1     0.029561     3B2     0.047687     8A1     0.118582  
       3B1     0.154016     9A1     0.159494     4B2     0.180361  
       5B2     0.186917     4B1     0.192728    10A1     0.198109  
       1A2     0.263774     6B2     0.264113    11A1     0.264819  
      12A1     0.314320     5B1     0.326642    13A1     0.375996  
       7B2     0.380451    14A1     0.450383     8B2     0.464610  
       9B2     0.599937     6B1     0.643590    15A1     0.647540  
       2A2     0.658153    16A1     0.666644    17A1     0.696037  
       3A2     0.721783    10B2     0.722576     7B1     0.767424  
      18A1     0.792637    19A1     0.818637     8B1     0.838096  
      20A1     0.861586     9B1     0.901142    11B2     0.918619  
       4A2     0.924966    12B2     0.946585    13B2     0.980046  
      21A1     0.989781    10B1     1.012496    22A1     1.046731  
      14B2     1.051846    11B1     1.122068     5A2     1.177232  
      23A1     1.192238    15B2     1.198714    16B2     1.326427  
      24A1     1.336609    25A1     1.442870     6A2     1.507688  
      12B1     1.594533    26A1     1.665671    27A1     1.811773  
      17B2     1.824512    18B2     1.978104    28A1     2.040779  
      13B1     2.047806    19B2     2.054055     7A2     2.056756  
      14B1     2.058946    29A1     2.079873    30A1     2.114928  
       8A2     2.118691    20B2     2.135265    31A1     2.141096  
      15B1     2.145433    32A1     2.252428    21B2     2.267294  
      16B1     2.303267     9A2     2.312158    17B1     2.434434  
      33A1     2.470043    22B2     2.481977    34A1     2.487165  
      35A1     2.694969    18B1     2.715539    23B2     2.719734  
      36A1     2.841413    24B2     2.861088    10A2     2.880949  
      25B2     3.693066    37A1     3.754240    11A2     4.015049  
      19B1     4.080795    20B1     4.099435    38A1     4.139030  
      26B2     4.183582    27B2     4.283843    21B1     4.288294  
      39A1     4.351425    12A2     4.382289    40A1     4.425864  
      22B1     4.452803    28B2     4.517396    41A1     4.791204  
      29B2     4.844734    30B2     5.145818    13A2     5.147608  
      31B2     5.249067    42A1     5.345658    23B1     5.521002  
      43A1     5.684519    44A1     6.202012    24B1     6.389000  
      45A1     6.408850    14A2     6.410132    32B2     6.423569  
      25B1     6.435500    33B2     6.485371    46A1     6.536834  
      34B2     6.581002    26B1     6.716550    27B1     6.902259  
      47A1     6.906210    15A2     6.924501    48A1     6.941883  
      35B2     6.985617    49A1     7.047245    28B1     7.136172  
      29B1     7.279425    16A2     7.309483    36B2     7.309769  
      17A2     7.352644    50A1     7.439860    51A1     7.546001  
      52A1     7.909192    37B2     7.921440    38B2     8.813188  
      53A1     8.860273    54A1    15.815841  

    Beta Occupied:                                                        

       1A1   -20.605672     2A1   -20.570540     3A1    -1.355443  
       4A1    -1.051152     1B2    -0.718926     5A1    -0.588727  
       1B1    -0.513472     2B2    -0.495689  

    Beta Virtual:                                                         

       6A1     0.029402     3B2     0.047767     2B1     0.086496  
       7A1     0.091925     8A1     0.140905     9A1     0.167089  
       3B1     0.170576     4B2     0.180990     5B2     0.190505  
      10A1     0.225650     4B1     0.253270     1A2     0.263777  
       6B2     0.264559    11A1     0.288409    12A1     0.316704  
       5B1     0.327948     7B2     0.380623    13A1     0.386347  
      14A1     0.451467     8B2     0.464805     9B2     0.601557  
      15A1     0.660781     6B1     0.667420     2A2     0.672577  
      16A1     0.673546    17A1     0.713322     3A2     0.722246  
      10B2     0.734792     7B1     0.778695    18A1     0.805872  
       8B1     0.847171    19A1     0.851408     4A2     0.925354  
      20A1     0.927955    11B2     0.936428    12B2     0.953624  
      13B2     0.983751     9B1     0.986490    21A1     0.997096  
      22A1     1.052777    14B2     1.052950    10B1     1.060433  
      11B1     1.138068     5A2     1.177430    23A1     1.193742  
      15B2     1.201426    16B2     1.328831    24A1     1.393210  
      25A1     1.482097     6A2     1.508104    12B1     1.596501  
      26A1     1.696005    27A1     1.816802    17B2     1.824854  
      18B2     1.979515    28A1     2.070474    13B1     2.070807  
      19B2     2.071472     7A2     2.081396    14B1     2.100506  
      29A1     2.100530    30A1     2.155878    20B2     2.180984  
       8A2     2.201912    31A1     2.207661    15B1     2.258456  
      32A1     2.309241     9A2     2.312291    21B2     2.319070  
      16B1     2.319100    17B1     2.442172    33A1     2.484268  
      22B2     2.484839    34A1     2.514429    35A1     2.702553  
      18B1     2.717254    23B2     2.720641    36A1     2.853396  
      24B2     2.861269    10A2     2.880982    25B2     3.693932  
      37A1     3.754373    11A2     4.015077    19B1     4.083301  
      38A1     4.171204    26B2     4.219656    20B1     4.259596  
      21B1     4.293078    27B2     4.294254    12A2     4.382395  
      39A1     4.425149    22B1     4.457908    40A1     4.467874  
      28B2     4.517470    41A1     4.801902    29B2     4.844890  
      30B2     5.145999    13A2     5.147682    31B2     5.249473  
      42A1     5.346318    23B1     5.521112    43A1     5.689020  
      44A1     6.203719    24B1     6.485612    14A2     6.486962  
      32B2     6.487744    45A1     6.493035    25B1     6.499314  
      33B2     6.520641    46A1     6.608683    34B2     6.609265  
      26B1     6.723351    47A1     6.958268    15A2     7.038054  
      48A1     7.041903    27B1     7.084874    35B2     7.097479  
      28B1     7.136565    49A1     7.174086    29B1     7.283527  
      16A2     7.309760    36B2     7.309953    17A2     7.353043  
      50A1     7.442640    51A1     7.547041    52A1     7.909753  
      37B2     7.921786    38B2     8.813556    53A1     8.939697  
      54A1    15.816157  

    Final Occupation by Irrep:
             A1    A2    B1    B2 
    DOCC [     5,    0,    1,    2 ]
    SOCC [     1,    0,    1,    0 ]

  @UHF Final Energy:  -150.87363011458297

   => Energetics <=

    Nuclear Repulsion Energy =             23.8285083010727554
    One-Electron Energy =                -255.7189170695152143
    Two-Electron Energy =                  81.0167786538594754
    Total Energy =                       -150.8736301145829657

  UHF NO Occupations:
  HONO-2 :    5 A1 1.9970493
  HONO-1 :    2 B1 1.0000000
  HONO-0 :    6 A1 1.0000000
  LUNO+0 :    7 A1 0.0029507
  LUNO+1 :    3 B2 0.0017949
  LUNO+2 :    8 A1 0.0000215
  LUNO+3 :    9 A1 0.0000024


Computation Completed


Properties will be evaluated at   0.000000,   0.000000,   0.000000 [a0]

Properties computed using the SCF density matrix

  Nuclear Dipole Moment: [e a0]
     X:    -0.0000      Y:     0.0000      Z:     3.4854

  Electronic Dipole Moment: [e a0]
     X:     0.0000      Y:     0.0000      Z:    -2.6487

  Dipole Moment: [e a0]
     X:    -0.0000      Y:     0.0000      Z:     0.8368     Total:     0.8368

  Dipole Moment: [D]
     X:    -0.0000      Y:     0.0000      Z:     2.1268     Total:     2.1268


*** tstop() called on c5-18.compute.lan at Mon Mar  8 17:52:56 2021
Module time:
	user time   =      46.55 seconds =       0.78 minutes
	system time =       1.50 seconds =       0.03 minutes
	total time  =          6 seconds =       0.10 minutes
Total time:
	user time   =      46.55 seconds =       0.78 minutes
	system time =       1.50 seconds =       0.03 minutes
	total time  =          6 seconds =       0.10 minutes
 MINTS: Wrapper to libmints.
   by Justin Turney

   Calculation information:
      Number of threads:                12
      Number of atoms:                   4
      Number of AO shells:              46
      Number of SO shells:              37
      Number of primitives:             82
      Number of atomic orbitals:       160
      Number of basis functions:       138

      Number of irreps:                  4
      Integral cutoff                 0.00e+00
      Number of functions per irrep: [  54   17   29   38 ]

 OEINTS: Overlap, kinetic, potential, dipole, and quadrupole integrals
         stored in file 35.

      Computing two-electron integrals...done
      Computed 11519093 non-zero two-electron integrals.
        Stored in file 33.


*** tstart() called on c5-18.compute.lan
*** at Mon Mar  8 17:52:58 2021


	Wfn Parameters:
	--------------------
	Wavefunction         = CCSD_T
	Number of irreps     = 4
	Number of MOs        = 138
	Number of active MOs = 136
	AO-Basis             = NONE
	Semicanonical        = false
	Reference            = UHF
	Print Level          = 1

	IRREP	# MOs	# FZDC	# DOCC	# SOCC	# VIRT	# FZVR
	-----	-----	------	------	------	------	------
	 A1	   54	    2	    3	    1	    48	    0
	 A2	   17	    0	    0	    0	    17	    0
	 B1	   29	    0	    1	    1	    27	    0
	 B2	   38	    0	    2	    0	    36	    0
	Transforming integrals...
	IWL integrals will be deleted.
	(OO|OO)...
	Presorting SO-basis two-electron integrals.
	Sorting File: SO Ints (nn|nn) nbuckets = 1
	Transforming the one-electron integrals and constructing Fock matrices
	Starting AA/AB first half-transformation.
	Sorting AA/AB half-transformed integrals.
	Starting BB first half-transformation.
	Sorting BB half-transformed integrals.
	First half integral transformation complete.
	Starting AA second half-transformation.
	Starting AB second half-transformation.
	Starting BB second half-transformation.
	Two-electron integral transformation complete.
	(OO|OV)...
	Starting AA second half-transformation.
	Starting AB second half-transformation.
	Starting BB second half-transformation.
	Two-electron integral transformation complete.
	(OO|VV)...
	Starting AA second half-transformation.
	Starting AB second half-transformation.
	Starting BB second half-transformation.
	Two-electron integral transformation complete.
	(OV|OO)...
	Starting AA/AB first half-transformation.
	Sorting AA/AB half-transformed integrals.
	Starting BB first half-transformation.
	Sorting BB half-transformed integrals.
	First half integral transformation complete.
	Starting AA second half-transformation.
	Starting AB second half-transformation.
	Starting BB second half-transformation.
	Two-electron integral transformation complete.
	(OV|OV)...
	Starting AA second half-transformation.
	Starting AB second half-transformation.
	Starting BB second half-transformation.
	Two-electron integral transformation complete.
	(OV|VV)...
	Starting AA second half-transformation.
	Starting AB second half-transformation.
	Starting BB second half-transformation.
	Two-electron integral transformation complete.
	(VV|OO)...
	Starting AA/AB first half-transformation.
	Sorting AA/AB half-transformed integrals.
	Starting BB first half-transformation.
	Sorting BB half-transformed integrals.
	First half integral transformation complete.
	Starting AA second half-transformation.
	Starting AB second half-transformation.
	Starting BB second half-transformation.
	Two-electron integral transformation complete.
	(VV|OV)...
	Starting AA second half-transformation.
	Starting AB second half-transformation.
	Starting BB second half-transformation.
	Two-electron integral transformation complete.
	(VV|VV)...
	Starting AA second half-transformation.
	Starting AB second half-transformation.
	Starting BB second half-transformation.
	Two-electron integral transformation complete.
	Frozen core energy     =   -126.36921859541543

	Size of irrep 0 of <AB|CD> integrals:      5.040 (MW) /     40.320 (MB)
	Size of irrep 1 of <AB|CD> integrals:      3.197 (MW) /     25.576 (MB)
	Size of irrep 2 of <AB|CD> integrals:      3.640 (MW) /     29.124 (MB)
	Size of irrep 3 of <AB|CD> integrals:      4.783 (MW) /     38.264 (MB)
	Total:                                    16.660 (MW) /    133.283 (MB)

	Size of irrep 0 of <ab|cd> integrals:      5.382 (MW) /     43.059 (MB)
	Size of irrep 1 of <ab|cd> integrals:      3.389 (MW) /     27.114 (MB)
	Size of irrep 2 of <ab|cd> integrals:      3.936 (MW) /     31.490 (MB)
	Size of irrep 3 of <ab|cd> integrals:      5.018 (MW) /     40.141 (MB)
	Total:                                    17.726 (MW) /    141.804 (MB)

	Size of irrep 0 of <Ab|Cd> integrals:     22.024 (MW) /    176.194 (MB)
	Size of irrep 1 of <Ab|Cd> integrals:     13.170 (MW) /    105.357 (MB)
	Size of irrep 2 of <Ab|Cd> integrals:     15.140 (MW) /    121.119 (MB)
	Size of irrep 3 of <Ab|Cd> integrals:     19.598 (MW) /    156.787 (MB)
	Total:                                    69.932 (MW) /    559.457 (MB)

	Size of irrep 0 of <IA|BC> integrals:      1.469 (MW) /     11.748 (MB)
	Size of irrep 1 of <IA|BC> integrals:      0.694 (MW) /      5.550 (MB)
	Size of irrep 2 of <IA|BC> integrals:      0.908 (MW) /      7.266 (MB)
	Size of irrep 3 of <IA|BC> integrals:      1.198 (MW) /      9.588 (MB)
	Total:                                     4.269 (MW) /     34.152 (MB)

	Size of irrep 0 of <ia|bc> integrals:      1.178 (MW) /      9.426 (MB)
	Size of irrep 1 of <ia|bc> integrals:      0.527 (MW) /      4.212 (MB)
	Size of irrep 2 of <ia|bc> integrals:      0.663 (MW) /      5.301 (MB)
	Size of irrep 3 of <ia|bc> integrals:      0.999 (MW) /      7.992 (MB)
	Total:                                     3.366 (MW) /     26.931 (MB)

	Size of irrep 0 of <Ia|Bc> integrals:      1.521 (MW) /     12.164 (MB)
	Size of irrep 1 of <Ia|Bc> integrals:      0.711 (MW) /      5.690 (MB)
	Size of irrep 2 of <Ia|Bc> integrals:      0.949 (MW) /      7.595 (MB)
	Size of irrep 3 of <Ia|Bc> integrals:      1.222 (MW) /      9.775 (MB)
	Total:                                     4.403 (MW) /     35.225 (MB)

	Size of irrep 0 of <iA|bC> integrals:      1.140 (MW) /      9.123 (MB)
	Size of irrep 1 of <iA|bC> integrals:      0.512 (MW) /      4.094 (MB)
	Size of irrep 2 of <iA|bC> integrals:      0.634 (MW) /      5.074 (MB)
	Size of irrep 3 of <iA|bC> integrals:      0.978 (MW) /      7.827 (MB)
	Total:                                     3.265 (MW) /     26.118 (MB)

	Size of irrep 0 of tIjAb amplitudes:       0.084 (MW) /      0.676 (MB)
	Size of irrep 1 of tIjAb amplitudes:       0.022 (MW) /      0.174 (MB)
	Size of irrep 2 of tIjAb amplitudes:       0.039 (MW) /      0.311 (MB)
	Size of irrep 3 of tIjAb amplitudes:       0.062 (MW) /      0.496 (MB)
	Total:                                     0.207 (MW) /      1.657 (MB)

	Nuclear Rep. energy          =     23.82850830107276
	SCF energy                   =   -150.87363011458297
	One-electron energy          =    -85.41222859989840
	Two-electron (AA) energy     =     10.36284963335878
	Two-electron (BB) energy     =      5.46703497900533
	Two-electron (AB) energy     =     21.24942416729312
	Two-electron energy          =     37.07930877965723
	Reference energy             =   -150.87363011458385

*** tstop() called on c5-18.compute.lan at Mon Mar  8 17:53:26 2021
Module time:
	user time   =      74.65 seconds =       1.24 minutes
	system time =      14.28 seconds =       0.24 minutes
	total time  =         28 seconds =       0.47 minutes
Total time:
	user time   =     125.65 seconds =       2.09 minutes
	system time =      16.16 seconds =       0.27 minutes
	total time  =         36 seconds =       0.60 minutes
            **************************
            *                        *
            *        CCENERGY        *
            *                        *
            **************************

    Nuclear Rep. energy (wfn)     =   23.828508301072755
    SCF energy          (wfn)     = -150.873630114582966
    Reference energy    (file100) = -150.873630114583847

    Input parameters:
    -----------------
    Wave function   =     CCSD_T
    Reference wfn   =     UHF
    Brueckner       =     No
    Memory (Mbytes) =     4000.0
    Maxiter         =     50
    R_Convergence   =     1.0e-10
    E_Convergence   =     1.0e-10
    Restart         =     Yes
    DIIS            =     Yes
    AO Basis        =     NONE
    ABCD            =     NEW
    Cache Level     =     2
    Cache Type      =     LRU
    Print Level     =     1
    Num. of threads =     12
    # Amps to Print =     10
    Print MP2 Amps? =     No
    Analyze T2 Amps =     No
    Print Pair Ener =     No
    Local CC        =     No
    SCS-MP2         =     False
    SCSN-MP2        =     False
    SCS-CCSD        =     False

MP2 correlation energy -0.4161656742160160
                Solving CC Amplitude Equations
                ------------------------------
  Iter             Energy              RMS        T1Diag      D1Diag    New D1Diag    D2Diag
  ----     ---------------------    ---------   ----------  ----------  ----------   --------
     0        -0.416165674216016    0.000e+00    0.000000    0.000000    0.000000    0.000000
     1        -0.426977652052851    5.689e-02    0.010561    0.000000    0.000000    0.000000
     2        -0.435061261677369    1.699e-02    0.011058    0.000000    0.000000    0.000000
     3        -0.437206453955143    8.753e-03    0.012975    0.000000    0.000000    0.000000
     4        -0.437080073345879    2.677e-03    0.013382    0.000000    0.000000    0.000000
     5        -0.437070626309643    1.392e-03    0.013574    0.000000    0.000000    0.000000
     6        -0.437099702716573    5.286e-04    0.013600    0.000000    0.000000    0.000000
     7        -0.437102669864878    2.139e-04    0.013594    0.000000    0.000000    0.000000
     8        -0.437103603920950    6.663e-05    0.013589    0.000000    0.000000    0.000000
     9        -0.437104285818432    2.379e-05    0.013589    0.000000    0.000000    0.000000
    10        -0.437103390011513    9.200e-06    0.013588    0.000000    0.000000    0.000000
    11        -0.437103555048141    3.990e-06    0.013588    0.000000    0.000000    0.000000
    12        -0.437103515736215    1.442e-06    0.013588    0.000000    0.000000    0.000000
    13        -0.437103523600783    7.281e-07    0.013588    0.000000    0.000000    0.000000
    14        -0.437103546142401    3.032e-07    0.013588    0.000000    0.000000    0.000000
    15        -0.437103547874977    1.102e-07    0.013588    0.000000    0.000000    0.000000
    16        -0.437103548452071    4.925e-08    0.013588    0.000000    0.000000    0.000000
    17        -0.437103549030653    1.898e-08    0.013588    0.000000    0.000000    0.000000
    18        -0.437103548891040    9.829e-09    0.013588    0.000000    0.000000    0.000000
    19        -0.437103548686167    3.889e-09    0.013588    0.000000    0.000000    0.000000
    20        -0.437103548675595    2.104e-09    0.013588    0.000000    0.000000    0.000000
    21        -0.437103548652571    8.044e-10    0.013588    0.000000    0.000000    0.000000
    22        -0.437103548651005    3.240e-10    0.013588    0.000000    0.000000    0.000000
    23        -0.437103548650056    1.682e-10    0.013588    0.000000    0.000000    0.000000
    24        -0.437103548649900    6.896e-11    0.013588    0.000000    0.000000    0.000000

    Iterations converged.


    Largest TIA Amplitudes:
              5  65        -0.0132961652
              5  67        -0.0111594291
              7  94         0.0103585909
              5  66        -0.0096854510
              4  65        -0.0074583593
              3   1         0.0073946551
              2   3         0.0072174811
              4  66         0.0071651773
              3   5        -0.0055838206
              3   6         0.0053852476

    Largest Tia Amplitudes:
              3  67        -0.0147876304
              2   2         0.0133959814
              3  69        -0.0107728897
              5  96         0.0079604847
              3  66        -0.0076476333
              2   1        -0.0068003713
              2   7         0.0056010272
              2   6        -0.0055628224
              1  25        -0.0054420051
              4 109         0.0053718505

    Largest TIJAB Amplitudes:
      7   4 100  71         0.0142776300
      7   4  55  23        -0.0135834381
      7   2 100  12        -0.0122073136
      4   2  71  12         0.0110926148
      6   5  50   9        -0.0086661362
      7   4  49  23         0.0082491389
      6   5  97  72        -0.0080488950
      7   4  94  71         0.0078410344
      7   4  55   8        -0.0076433524
      7   4 100  82        -0.0073097989

    Largest Tijab Amplitudes:
      5   1  66  56         0.0086751545
      5   1  66  50        -0.0085735059
      5   1  68  56         0.0081610897
      4   3  99  67        -0.0076357580
      5   1  68  50        -0.0074582866
      4   3  99  73        -0.0073021335
      4   2  99   2         0.0071640900
      4   2  99  12         0.0068613175
      4   2 100   9        -0.0067004247
      4   3  51  10        -0.0065839126

    Largest TIjAb Amplitudes:
      7   5 100 103        -0.0218045546
      6   4  97  99        -0.0217457196
      7   5 100 102         0.0189917149
      7   1  55  66        -0.0180639293
      7   5 100  96        -0.0170702015
      7   1  55  68        -0.0168452378
      4   1  23  66        -0.0166790655
      5   3  72  73        -0.0161861308
      4   1  23  68        -0.0155127032
      4   1   8  66        -0.0145807691

    SCF energy       (wfn)                    = -150.873630114582966
    Reference energy (file100)                = -150.873630114583847

    Opposite-spin MP2 correlation energy      =   -0.314349116191498
    Same-spin MP2 correlation energy          =   -0.101816558024518
    MP2 correlation energy                    =   -0.416165674216016
      * MP2 total energy                      = -151.289795788799864

    Opposite-spin CCSD correlation energy     =   -0.342001768068755
    Same-spin CCSD correlation energy         =   -0.095101780581145
    CCSD correlation energy                   =   -0.437103548649900
      * CCSD total energy                     = -151.310733663233748

            **************************
            *                        *
            *        CCTRIPLES       *
            *                        *
            **************************


    Wave function   =    CCSD_T
    Reference wfn   =      UHF

    Nuclear Rep. energy (wfn)                =   23.828508301072755
    SCF energy          (wfn)                = -150.873630114582966
    Reference energy    (file100)            = -150.873630114583847
    CCSD energy         (file100)            =   -0.437103548649900
    Total CCSD energy   (file100)            = -151.310733663233748

    Number of ijk index combinations:
    Spin Case AAA:                                  56
    Spin Case BBB:                                  20
    Spin Case AAB:                                 168
    Spin Case ABB:                                 120
    AAA (T) energy                             =   -0.000395522406959
    BBB (T) energy                             =   -0.000201934049331
    AAB (T) energy                             =   -0.006703022006271
    ABB (T) energy                             =   -0.004978214221982
    (T) energy                                   =   -0.012278692684542
      * CCSD(T) total energy                     = -151.323012355918280

Stephenergy -151.32301235591828
    Psi4 stopped on: Monday, 08 March 2021 05:54PM
    Psi4 wall time for execution: 0:01:51.17

*** Psi4 exiting successfully. Buy a developer a beer!
