
    -----------------------------------------------------------------------
          Psi4: An Open-Source Ab Initio Electronic Structure Package
                               Psi4 1.3.2 release

                         Git: Rev {HEAD} ecbda83 


    R. M. Parrish, L. A. Burns, D. G. A. Smith, A. C. Simmonett,
    A. E. DePrince III, E. G. Hohenstein, U. Bozkaya, A. Yu. Sokolov,
    R. Di Remigio, R. M. Richard, J. F. Gonthier, A. M. James,
    H. R. McAlexander, A. Kumar, M. Saitow, X. Wang, B. P. Pritchard,
    P. Verma, H. F. Schaefer III, K. Patkowski, R. A. King, E. F. Valeev,
    F. A. Evangelista, J. M. Turney, T. D. Crawford, and C. D. Sherrill,
    J. Chem. Theory Comput. 13(7) pp 3185--3197 (2017).
    (doi: 10.1021/acs.jctc.7b00174)


                         Additional Contributions by
    P. Kraus, H. Kruse, M. H. Lechner, M. C. Schieber, R. A. Shaw,
    A. Alenaizan, R. Galvelis, Z. L. Glick, S. Lehtola, and J. P. Misiewicz

    -----------------------------------------------------------------------


    Psi4 started on: Monday, 08 March 2021 05:39PM

    Process ID: 60865
    Host:       c2-13.compute.lan
    PSIDATADIR: /apps/gb/PSI4/1.3.2/share/psi4
    Memory:     500.0 MiB
    Threads:    12
    
  ==> Input File <==

--------------------------------------------------------------------------
memory 4 GB

molecule  {
0 3
O    0.000000000000   -0.000000000000    1.270101053600
H    0.000000000000   -0.759829563800    1.859457714200
H   -0.000000000000    0.759829563800    1.859457714200
O    0.000000000000    0.000000000000   -1.504426534500
}
set {
basis aug-cc-pvtz
reference uhf
e_convergence 10
scf_type pk
freeze_core true
}

set ccenergy {
e_convergence 10
r_convergence 10
}

e = energy('ccsd(t)')

print_out('Stephenergy {}'.format(e))

--------------------------------------------------------------------------

  Memory set to   3.725 GiB by Python driver.

*** tstart() called on c2-13.compute.lan
*** at Mon Mar  8 17:39:45 2021

   => Loading Basis Set <=

    Name: AUG-CC-PVTZ
    Role: ORBITAL
    Keyword: BASIS
    atoms 1, 4 entry O          line   327 file /apps/gb/PSI4/1.3.2/share/psi4/basis/aug-cc-pvtz.gbs 
    atoms 2-3  entry H          line    36 file /apps/gb/PSI4/1.3.2/share/psi4/basis/aug-cc-pvtz.gbs 


         ---------------------------------------------------------
                                   SCF
               by Justin Turney, Rob Parrish, Andy Simmonett
                          and Daniel G. A. Smith
                              UHF Reference
                       12 Threads,   3814 MiB Core
         ---------------------------------------------------------

  ==> Geometry <==

    Molecular point group: c2v
    Full point group: C2v

    Geometry (in Angstrom), charge = 0, multiplicity = 3:

       Center              X                  Y                   Z               Mass       
    ------------   -----------------  -----------------  -----------------  -----------------
         O            0.000000000000     0.000000000000     1.270101053562    15.994914619570
         H            0.000000000000    -0.759829563800     1.859457714162     1.007825032230
         H           -0.000000000000     0.759829563800     1.859457714162     1.007825032230
         O            0.000000000000     0.000000000000    -1.504426534538    15.994914619570

  Running in c2v symmetry.

  Rotational constants: A =     14.48602  B =      0.24441  C =      0.24035 [cm^-1]
  Rotational constants: A = 434279.85886  B =   7327.21568  C =   7205.64134 [MHz]
  Nuclear repulsion =   23.814784254847641

  Charge       = 0
  Multiplicity = 3
  Electrons    = 18
  Nalpha       = 10
  Nbeta        = 8

  ==> Algorithm <==

  SCF Algorithm Type is PK.
  DIIS enabled.
  MOM disabled.
  Fractional occupation disabled.
  Guess Type is SAD.
  Energy threshold   = 1.00e-10
  Density threshold  = 1.00e-08
  Integral threshold = 0.00e+00

  ==> Primary Basis <==

  Basis Set: AUG-CC-PVTZ
    Blend: AUG-CC-PVTZ
    Number of shells: 46
    Number of basis function: 138
    Number of Cartesian functions: 160
    Spherical Harmonics?: true
    Max angular momentum: 3

  ==> Pre-Iterations <==

   -------------------------------------------------------
    Irrep   Nso     Nmo     Nalpha   Nbeta   Ndocc  Nsocc
   -------------------------------------------------------
     A1        54      54       0       0       0       0
     A2        17      17       0       0       0       0
     B1        29      29       0       0       0       0
     B2        38      38       0       0       0       0
   -------------------------------------------------------
    Total     138     138      10       8       8       2
   -------------------------------------------------------

  ==> Integral Setup <==

  Using in-core PK algorithm.
   Calculation information:
      Number of atoms:                   4
      Number of AO shells:              46
      Number of primitives:             82
      Number of atomic orbitals:       160
      Number of basis functions:       138

      Integral cutoff                 1.00e-12
      Number of threads:                12

  Performing in-core PK
  Using 91996872 doubles for integral storage.
  We computed 909553 shell quartets total.
  Whereas there are 584821 unique shell quartets.
    55.53 percent of shell quartets recomputed by reordering.

  ==> DiskJK: Disk-Based J/K Matrices <==

    J tasked:                  Yes
    K tasked:                  Yes
    wK tasked:                  No
    Memory [MiB]:             2861
    Schwarz Cutoff:          1E-12

    OpenMP threads:             12

  Minimum eigenvalue in the overlap matrix is 3.2357750988E-04.
  Using Symmetric Orthogonalization.

  SCF Guess: Superposition of Atomic Densities via on-the-fly atomic UHF.

  ==> Iterations <==

                        Total Energy        Delta E     RMS |[F,P]|

   @UHF iter SAD:  -149.38141571142990   -1.49381e+02   0.00000e+00 
   @UHF iter   1:  -150.76989363938841   -1.38848e+00   6.69769e-03 DIIS
   @UHF iter   2:  -150.84065290785887   -7.07593e-02   4.25839e-03 DIIS
   @UHF iter   3:  -150.87198016191437   -3.13273e-02   5.58894e-04 DIIS
   @UHF iter   4:  -150.87335458824273   -1.37443e-03   1.71106e-04 DIIS
   @UHF iter   5:  -150.87348871691751   -1.34129e-04   6.98270e-05 DIIS
   @UHF iter   6:  -150.87352184713643   -3.31302e-05   2.08616e-05 DIIS
   @UHF iter   7:  -150.87352495133169   -3.10420e-06   5.36213e-06 DIIS
   @UHF iter   8:  -150.87352517619874   -2.24867e-07   1.49249e-06 DIIS
   @UHF iter   9:  -150.87352519316968   -1.69709e-08   3.70830e-07 DIIS
   @UHF iter  10:  -150.87352519428038   -1.11069e-09   1.78338e-07 DIIS
   @UHF iter  11:  -150.87352519462684   -3.46461e-10   6.94841e-08 DIIS
   @UHF iter  12:  -150.87352519468101   -5.41718e-11   1.49193e-08 DIIS
   @UHF iter  13:  -150.87352519468288   -1.87583e-12   4.47074e-09 DIIS
  Energy and wave function converged.


  ==> Post-Iterations <==

   @Spin Contamination Metric:   9.530588380E-03
   @S^2 Expected:                2.000000000E+00
   @S^2 Observed:                2.009530588E+00
   @S   Expected:                1.000000000E+00
   @S   Observed:                1.000000000E+00

    Orbital Energies [Eh]
    ---------------------

    Alpha Occupied:                                                       

       1A1   -20.684526     2A1   -20.571196     3A1    -1.393946  
       4A1    -1.355281     1B2    -0.718726     5A1    -0.688197  
       1B1    -0.685248     6A1    -0.586444     2B2    -0.586258  
       2B1    -0.513969  

    Alpha Virtual:                                                        

       7A1     0.029553     3B2     0.047671     8A1     0.118597  
       3B1     0.154051     9A1     0.159471     4B2     0.180289  
       5B2     0.186922     4B1     0.192748    10A1     0.198010  
       1A2     0.263711     6B2     0.264048    11A1     0.264770  
      12A1     0.314358     5B1     0.326720    13A1     0.376041  
       7B2     0.380350    14A1     0.449981     8B2     0.464335  
       9B2     0.599993     6B1     0.643618    15A1     0.647421  
       2A2     0.658159    16A1     0.666518    17A1     0.696171  
       3A2     0.721698    10B2     0.722513     7B1     0.767518  
      18A1     0.792756    19A1     0.818551     8B1     0.837799  
      20A1     0.861024     9B1     0.901227    11B2     0.918621  
       4A2     0.924717    12B2     0.946264    13B2     0.979690  
      21A1     0.989741    10B1     1.012626    22A1     1.046352  
      14B2     1.051371    11B1     1.121942     5A2     1.176718  
      23A1     1.191620    15B2     1.198762    16B2     1.326845  
      24A1     1.336486    25A1     1.443354     6A2     1.507254  
      12B1     1.594032    26A1     1.666510    27A1     1.812423  
      17B2     1.822046    18B2     1.976781    28A1     2.040759  
      13B1     2.047764    19B2     2.054053     7A2     2.056768  
      14B1     2.058912    29A1     2.079171    30A1     2.114902  
       8A2     2.118696    20B2     2.135201    31A1     2.140264  
      15B1     2.145217    32A1     2.252115    21B2     2.267188  
      16B1     2.303357     9A2     2.311827    17B1     2.434051  
      33A1     2.470127    22B2     2.482243    34A1     2.486263  
      35A1     2.695628    18B1     2.715933    23B2     2.720840  
      36A1     2.839955    24B2     2.862098    10A2     2.880099  
      25B2     3.690654    37A1     3.753196    11A2     4.013189  
      19B1     4.079399    20B1     4.099252    38A1     4.139961  
      26B2     4.183239    27B2     4.281048    21B1     4.289306  
      39A1     4.350963    12A2     4.381638    40A1     4.427359  
      22B1     4.451026    28B2     4.515215    41A1     4.788525  
      29B2     4.839466    30B2     5.141320    13A2     5.144081  
      31B2     5.247867    42A1     5.339558    23B1     5.515858  
      43A1     5.683845    44A1     6.198396    24B1     6.388936  
      45A1     6.408863    14A2     6.410144    32B2     6.423581  
      25B1     6.435495    33B2     6.485579    46A1     6.535740  
      34B2     6.581821    26B1     6.716119    27B1     6.902287  
      47A1     6.905576    15A2     6.924509    48A1     6.939648  
      35B2     6.985634    49A1     7.046579    28B1     7.134812  
      29B1     7.278008    16A2     7.305862    36B2     7.308558  
      17A2     7.352288    50A1     7.437869    51A1     7.542096  
      52A1     7.908666    37B2     7.915323    38B2     8.804370  
      53A1     8.860385    54A1    15.769987  

    Beta Occupied:                                                        

       1A1   -20.605660     2A1   -20.570734     3A1    -1.354594  
       4A1    -1.051140     1B2    -0.718397     5A1    -0.588173  
       1B1    -0.513309     2B2    -0.495677  

    Beta Virtual:                                                         

       6A1     0.029393     3B2     0.047752     2B1     0.086506  
       7A1     0.091924     8A1     0.140941     9A1     0.167039  
       3B1     0.170625     4B2     0.180918     5B2     0.190510  
      10A1     0.225535     4B1     0.253280     1A2     0.263713  
       6B2     0.264495    11A1     0.288397    12A1     0.316749  
       5B1     0.328023     7B2     0.380522    13A1     0.386387  
      14A1     0.451066     8B2     0.464530     9B2     0.601610  
      15A1     0.660467     6B1     0.667437     2A2     0.672580  
      16A1     0.673626    17A1     0.713410     3A2     0.722164  
      10B2     0.734724     7B1     0.778786    18A1     0.806063  
       8B1     0.846936    19A1     0.850676     4A2     0.925104  
      20A1     0.928058    11B2     0.936371    12B2     0.953322  
      13B2     0.983431     9B1     0.986625    21A1     0.996903  
      14B2     1.052482    22A1     1.052508    10B1     1.060425  
      11B1     1.137976     5A2     1.176914    23A1     1.193111  
      15B2     1.201487    16B2     1.329241    24A1     1.393120  
      25A1     1.482724     6A2     1.507672    12B1     1.596001  
      26A1     1.696670    27A1     1.817446    17B2     1.822381  
      18B2     1.978171    28A1     2.070280    13B1     2.070817  
      19B2     2.071478     7A2     2.081408    29A1     2.099460  
      14B1     2.100307    30A1     2.155525    20B2     2.180909  
       8A2     2.201916    31A1     2.207673    15B1     2.258268  
      32A1     2.308910     9A2     2.311961    21B2     2.318981  
      16B1     2.319194    17B1     2.441888    33A1     2.483155  
      22B2     2.485122    34A1     2.514833    35A1     2.703007  
      18B1     2.717635    23B2     2.721742    36A1     2.852078  
      24B2     2.862279    10A2     2.880133    25B2     3.691523  
      37A1     3.753330    11A2     4.013217    19B1     4.081724  
      38A1     4.172119    26B2     4.218723    20B1     4.259611  
      27B2     4.292045    21B1     4.294038    12A2     4.381744  
      39A1     4.426212    22B1     4.456162    40A1     4.467763  
      28B2     4.515292    41A1     4.799308    29B2     4.839621  
      30B2     5.141499    13A2     5.144155    31B2     5.248273  
      42A1     5.340205    23B1     5.515969    43A1     5.688349  
      44A1     6.200046    24B1     6.485600    14A2     6.486973  
      32B2     6.487755    45A1     6.493081    25B1     6.499213  
      33B2     6.521171    46A1     6.607397    34B2     6.609764  
      26B1     6.722982    47A1     6.955078    15A2     7.038062  
      48A1     7.041924    27B1     7.084846    35B2     7.097495  
      28B1     7.135214    49A1     7.173945    29B1     7.282144  
      16A2     7.306129    36B2     7.308743    17A2     7.352699  
      50A1     7.440627    51A1     7.543169    52A1     7.909227  
      37B2     7.915670    38B2     8.804739    53A1     8.939808  
      54A1    15.770304  

    Final Occupation by Irrep:
             A1    A2    B1    B2 
    DOCC [     5,    0,    1,    2 ]
    SOCC [     1,    0,    1,    0 ]

  @UHF Final Energy:  -150.87352519468288

   => Energetics <=

    Nuclear Repulsion Energy =             23.8147842548476412
    One-Electron Energy =                -255.6951428417066836
    Two-Electron Energy =                  81.0068333921761621
    Total Energy =                       -150.8735251946828839

  UHF NO Occupations:
  HONO-2 :    5 A1 1.9970493
  HONO-1 :    6 A1 1.0000000
  HONO-0 :    2 B1 1.0000000
  LUNO+0 :    7 A1 0.0029507
  LUNO+1 :    3 B2 0.0017950
  LUNO+2 :    8 A1 0.0000216
  LUNO+3 :    9 A1 0.0000024


Computation Completed


Properties will be evaluated at   0.000000,   0.000000,   0.000000 [a0]

Properties computed using the SCF density matrix

  Nuclear Dipole Moment: [e a0]
     X:     0.0000      Y:     0.0000      Z:     3.4852

  Electronic Dipole Moment: [e a0]
     X:     0.0000      Y:     0.0000      Z:    -2.6489

  Dipole Moment: [e a0]
     X:     0.0000      Y:     0.0000      Z:     0.8364     Total:     0.8364

  Dipole Moment: [D]
     X:     0.0000      Y:     0.0000      Z:     2.1259     Total:     2.1259


*** tstop() called on c2-13.compute.lan at Mon Mar  8 17:39:51 2021
Module time:
	user time   =      43.99 seconds =       0.73 minutes
	system time =       2.30 seconds =       0.04 minutes
	total time  =          6 seconds =       0.10 minutes
Total time:
	user time   =      43.99 seconds =       0.73 minutes
	system time =       2.30 seconds =       0.04 minutes
	total time  =          6 seconds =       0.10 minutes
 MINTS: Wrapper to libmints.
   by Justin Turney

   Calculation information:
      Number of threads:                12
      Number of atoms:                   4
      Number of AO shells:              46
      Number of SO shells:              37
      Number of primitives:             82
      Number of atomic orbitals:       160
      Number of basis functions:       138

      Number of irreps:                  4
      Integral cutoff                 0.00e+00
      Number of functions per irrep: [  54   17   29   38 ]

 OEINTS: Overlap, kinetic, potential, dipole, and quadrupole integrals
         stored in file 35.

      Computing two-electron integrals...done
      Computed 11331750 non-zero two-electron integrals.
        Stored in file 33.


*** tstart() called on c2-13.compute.lan
*** at Mon Mar  8 17:39:54 2021


	Wfn Parameters:
	--------------------
	Wavefunction         = CCSD_T
	Number of irreps     = 4
	Number of MOs        = 138
	Number of active MOs = 136
	AO-Basis             = NONE
	Semicanonical        = false
	Reference            = UHF
	Print Level          = 1

	IRREP	# MOs	# FZDC	# DOCC	# SOCC	# VIRT	# FZVR
	-----	-----	------	------	------	------	------
	 A1	   54	    2	    3	    1	    48	    0
	 A2	   17	    0	    0	    0	    17	    0
	 B1	   29	    0	    1	    1	    27	    0
	 B2	   38	    0	    2	    0	    36	    0
	Transforming integrals...
	IWL integrals will be deleted.
	(OO|OO)...
	Presorting SO-basis two-electron integrals.
	Sorting File: SO Ints (nn|nn) nbuckets = 1
	Transforming the one-electron integrals and constructing Fock matrices
	Starting AA/AB first half-transformation.
	Sorting AA/AB half-transformed integrals.
	Starting BB first half-transformation.
	Sorting BB half-transformed integrals.
	First half integral transformation complete.
	Starting AA second half-transformation.
	Starting AB second half-transformation.
	Starting BB second half-transformation.
	Two-electron integral transformation complete.
	(OO|OV)...
	Starting AA second half-transformation.
	Starting AB second half-transformation.
	Starting BB second half-transformation.
	Two-electron integral transformation complete.
	(OO|VV)...
	Starting AA second half-transformation.
	Starting AB second half-transformation.
	Starting BB second half-transformation.
	Two-electron integral transformation complete.
	(OV|OO)...
	Starting AA/AB first half-transformation.
	Sorting AA/AB half-transformed integrals.
	Starting BB first half-transformation.
	Sorting BB half-transformed integrals.
	First half integral transformation complete.
	Starting AA second half-transformation.
	Starting AB second half-transformation.
	Starting BB second half-transformation.
	Two-electron integral transformation complete.
	(OV|OV)...
	Starting AA second half-transformation.
	Starting AB second half-transformation.
	Starting BB second half-transformation.
	Two-electron integral transformation complete.
	(OV|VV)...
	Starting AA second half-transformation.
	Starting AB second half-transformation.
	Starting BB second half-transformation.
	Two-electron integral transformation complete.
	(VV|OO)...
	Starting AA/AB first half-transformation.
	Sorting AA/AB half-transformed integrals.
	Starting BB first half-transformation.
	Sorting BB half-transformed integrals.
	First half integral transformation complete.
	Starting AA second half-transformation.
	Starting AB second half-transformation.
	Starting BB second half-transformation.
	Two-electron integral transformation complete.
	(VV|OV)...
	Starting AA second half-transformation.
	Starting AB second half-transformation.
	Starting BB second half-transformation.
	Two-electron integral transformation complete.
	(VV|VV)...
	Starting AA second half-transformation.
	Starting AB second half-transformation.
	Starting BB second half-transformation.
	Two-electron integral transformation complete.
	Frozen core energy     =   -126.36613017497376

	Size of irrep 0 of <AB|CD> integrals:      5.040 (MW) /     40.320 (MB)
	Size of irrep 1 of <AB|CD> integrals:      3.197 (MW) /     25.576 (MB)
	Size of irrep 2 of <AB|CD> integrals:      3.640 (MW) /     29.124 (MB)
	Size of irrep 3 of <AB|CD> integrals:      4.783 (MW) /     38.264 (MB)
	Total:                                    16.660 (MW) /    133.283 (MB)

	Size of irrep 0 of <ab|cd> integrals:      5.382 (MW) /     43.059 (MB)
	Size of irrep 1 of <ab|cd> integrals:      3.389 (MW) /     27.114 (MB)
	Size of irrep 2 of <ab|cd> integrals:      3.936 (MW) /     31.490 (MB)
	Size of irrep 3 of <ab|cd> integrals:      5.018 (MW) /     40.141 (MB)
	Total:                                    17.726 (MW) /    141.804 (MB)

	Size of irrep 0 of <Ab|Cd> integrals:     22.024 (MW) /    176.194 (MB)
	Size of irrep 1 of <Ab|Cd> integrals:     13.170 (MW) /    105.357 (MB)
	Size of irrep 2 of <Ab|Cd> integrals:     15.140 (MW) /    121.119 (MB)
	Size of irrep 3 of <Ab|Cd> integrals:     19.598 (MW) /    156.787 (MB)
	Total:                                    69.932 (MW) /    559.457 (MB)

	Size of irrep 0 of <IA|BC> integrals:      1.469 (MW) /     11.748 (MB)
	Size of irrep 1 of <IA|BC> integrals:      0.694 (MW) /      5.550 (MB)
	Size of irrep 2 of <IA|BC> integrals:      0.908 (MW) /      7.266 (MB)
	Size of irrep 3 of <IA|BC> integrals:      1.198 (MW) /      9.588 (MB)
	Total:                                     4.269 (MW) /     34.152 (MB)

	Size of irrep 0 of <ia|bc> integrals:      1.178 (MW) /      9.426 (MB)
	Size of irrep 1 of <ia|bc> integrals:      0.527 (MW) /      4.212 (MB)
	Size of irrep 2 of <ia|bc> integrals:      0.663 (MW) /      5.301 (MB)
	Size of irrep 3 of <ia|bc> integrals:      0.999 (MW) /      7.992 (MB)
	Total:                                     3.366 (MW) /     26.931 (MB)

	Size of irrep 0 of <Ia|Bc> integrals:      1.521 (MW) /     12.164 (MB)
	Size of irrep 1 of <Ia|Bc> integrals:      0.711 (MW) /      5.690 (MB)
	Size of irrep 2 of <Ia|Bc> integrals:      0.949 (MW) /      7.595 (MB)
	Size of irrep 3 of <Ia|Bc> integrals:      1.222 (MW) /      9.775 (MB)
	Total:                                     4.403 (MW) /     35.225 (MB)

	Size of irrep 0 of <iA|bC> integrals:      1.140 (MW) /      9.123 (MB)
	Size of irrep 1 of <iA|bC> integrals:      0.512 (MW) /      4.094 (MB)
	Size of irrep 2 of <iA|bC> integrals:      0.634 (MW) /      5.074 (MB)
	Size of irrep 3 of <iA|bC> integrals:      0.978 (MW) /      7.827 (MB)
	Total:                                     3.265 (MW) /     26.118 (MB)

	Size of irrep 0 of tIjAb amplitudes:       0.084 (MW) /      0.676 (MB)
	Size of irrep 1 of tIjAb amplitudes:       0.022 (MW) /      0.174 (MB)
	Size of irrep 2 of tIjAb amplitudes:       0.039 (MW) /      0.311 (MB)
	Size of irrep 3 of tIjAb amplitudes:       0.062 (MW) /      0.496 (MB)
	Total:                                     0.207 (MW) /      1.657 (MB)

	Nuclear Rep. energy          =     23.81478425484764
	SCF energy                   =   -150.87352519468288
	One-electron energy          =    -85.39499786121047
	Two-electron (AA) energy     =     10.36164030156614
	Two-electron (BB) energy     =      5.46576448110544
	Two-electron (AB) energy     =     21.24541380398132
	Two-electron energy          =     37.07281858665290
	Reference energy             =   -150.87352519468368

*** tstop() called on c2-13.compute.lan at Mon Mar  8 17:41:12 2021
Module time:
	user time   =     515.36 seconds =       8.59 minutes
	system time =      35.13 seconds =       0.59 minutes
	total time  =         78 seconds =       1.30 minutes
Total time:
	user time   =     565.30 seconds =       9.42 minutes
	system time =      38.08 seconds =       0.63 minutes
	total time  =         87 seconds =       1.45 minutes
            **************************
            *                        *
            *        CCENERGY        *
            *                        *
            **************************

    Nuclear Rep. energy (wfn)     =   23.814784254847641
    SCF energy          (wfn)     = -150.873525194682884
    Reference energy    (file100) = -150.873525194683680

    Input parameters:
    -----------------
    Wave function   =     CCSD_T
    Reference wfn   =     UHF
    Brueckner       =     No
    Memory (Mbytes) =     4000.0
    Maxiter         =     50
    R_Convergence   =     1.0e-10
    E_Convergence   =     1.0e-10
    Restart         =     Yes
    DIIS            =     Yes
    AO Basis        =     NONE
    ABCD            =     NEW
    Cache Level     =     2
    Cache Type      =     LRU
    Print Level     =     1
    Num. of threads =     12
    # Amps to Print =     10
    Print MP2 Amps? =     No
    Analyze T2 Amps =     No
    Print Pair Ener =     No
    Local CC        =     No
    SCS-MP2         =     False
    SCSN-MP2        =     False
    SCS-CCSD        =     False

MP2 correlation energy -0.4162734041938329
                Solving CC Amplitude Equations
                ------------------------------
  Iter             Energy              RMS        T1Diag      D1Diag    New D1Diag    D2Diag
  ----     ---------------------    ---------   ----------  ----------  ----------   --------
     0        -0.416273404193833    0.000e+00    0.000000    0.000000    0.000000    0.000000
     1        -0.427053782972578    5.698e-02    0.010579    0.000000    0.000000    0.000000
     2        -0.435150786786846    1.703e-02    0.011073    0.000000    0.000000    0.000000
     3        -0.437302244686647    8.772e-03    0.012994    0.000000    0.000000    0.000000
     4        -0.437175827754210    2.680e-03    0.013403    0.000000    0.000000    0.000000
     5        -0.437166338303295    1.394e-03    0.013595    0.000000    0.000000    0.000000
     6        -0.437195404167777    5.294e-04    0.013621    0.000000    0.000000    0.000000
     7        -0.437198378070064    2.145e-04    0.013615    0.000000    0.000000    0.000000
     8        -0.437199317868965    6.677e-05    0.013611    0.000000    0.000000    0.000000
     9        -0.437200003229915    2.385e-05    0.013610    0.000000    0.000000    0.000000
    10        -0.437199104049725    9.218e-06    0.013610    0.000000    0.000000    0.000000
    11        -0.437199269598988    3.999e-06    0.013610    0.000000    0.000000    0.000000
    12        -0.437199229910334    1.445e-06    0.013610    0.000000    0.000000    0.000000
    13        -0.437199237831565    7.301e-07    0.013610    0.000000    0.000000    0.000000
    14        -0.437199260388889    3.045e-07    0.013610    0.000000    0.000000    0.000000
    15        -0.437199262087010    1.110e-07    0.013610    0.000000    0.000000    0.000000
    16        -0.437199262658828    4.969e-08    0.013610    0.000000    0.000000    0.000000
    17        -0.437199263236483    1.915e-08    0.013610    0.000000    0.000000    0.000000
    18        -0.437199263094000    9.947e-09    0.013610    0.000000    0.000000    0.000000
    19        -0.437199262886169    3.929e-09    0.013610    0.000000    0.000000    0.000000
    20        -0.437199262875490    2.122e-09    0.013610    0.000000    0.000000    0.000000
    21        -0.437199262852215    8.108e-10    0.013610    0.000000    0.000000    0.000000
    22        -0.437199262850670    3.261e-10    0.013610    0.000000    0.000000    0.000000
    23        -0.437199262849717    1.693e-10    0.013610    0.000000    0.000000    0.000000
    24        -0.437199262849554    6.943e-11    0.013610    0.000000    0.000000    0.000000

    Iterations converged.


    Largest TIA Amplitudes:
              5  65        -0.0133342253
              5  67        -0.0111763595
              7  94         0.0103655832
              5  66        -0.0097190314
              4  65        -0.0074633697
              3   1         0.0074084742
              2   3         0.0072093615
              4  66         0.0071611929
              3   5        -0.0055957123
              3   6         0.0053882570

    Largest Tia Amplitudes:
              3  67        -0.0148340792
              2   2         0.0134236213
              3  69        -0.0107898931
              5  96         0.0079600058
              3  66        -0.0076708912
              2   1        -0.0068095617
              2   7         0.0056057389
              2   6        -0.0055715156
              1  25        -0.0054434972
              4 109         0.0053915440

    Largest TIJAB Amplitudes:
      7   4 100  71         0.0142767190
      7   4  55  23        -0.0135873093
      7   2 100  12        -0.0121373524
      4   2  71  12         0.0110270367
      6   5  50   9        -0.0086543087
      7   4  49  23         0.0082506029
      6   5  97  72        -0.0080800218
      7   4  94  71         0.0078463320
      7   4  55   8        -0.0076277780
      7   4 100  82        -0.0073811311

    Largest Tijab Amplitudes:
      5   1  66  56         0.0086751970
      5   1  66  50        -0.0085726976
      5   1  68  56         0.0081614577
      4   3  99  67        -0.0076498749
      5   1  68  50        -0.0074578884
      4   3  99  73        -0.0073218899
      4   2  99   2         0.0071819299
      4   2  99  12         0.0068626604
      4   2 100   9        -0.0067271982
      4   3  51  10        -0.0065447531

    Largest TIjAb Amplitudes:
      7   5 100 103        -0.0218774880
      6   4  97  99        -0.0218265020
      7   5 100 102         0.0188351226
      7   1  55  66        -0.0180641845
      7   5 100  96        -0.0170641640
      7   1  55  68        -0.0168461301
      4   1  23  66        -0.0167257362
      5   3  72  73        -0.0162568303
      4   1  23  68        -0.0155575379
      7   5  55  56        -0.0145653959

    SCF energy       (wfn)                    = -150.873525194682884
    Reference energy (file100)                = -150.873525194683680

    Opposite-spin MP2 correlation energy      =   -0.314432174878041
    Same-spin MP2 correlation energy          =   -0.101841229315791
    MP2 correlation energy                    =   -0.416273404193833
      * MP2 total energy                      = -151.289798598877525

    Opposite-spin CCSD correlation energy     =   -0.342091540668857
    Same-spin CCSD correlation energy         =   -0.095107722180697
    CCSD correlation energy                   =   -0.437199262849554
      * CCSD total energy                     = -151.310724457533240

            **************************
            *                        *
            *        CCTRIPLES       *
            *                        *
            **************************


    Wave function   =    CCSD_T
    Reference wfn   =      UHF

    Nuclear Rep. energy (wfn)                =   23.814784254847641
    SCF energy          (wfn)                = -150.873525194682884
    Reference energy    (file100)            = -150.873525194683680
    CCSD energy         (file100)            =   -0.437199262849554
    Total CCSD energy   (file100)            = -151.310724457533240

    Number of ijk index combinations:
    Spin Case AAA:                                  56
    Spin Case BBB:                                  20
    Spin Case AAB:                                 168
    Spin Case ABB:                                 120
    AAA (T) energy                             =   -0.000395721005177
    BBB (T) energy                             =   -0.000202138429600
    AAB (T) energy                             =   -0.006709903254809
    ABB (T) energy                             =   -0.004985107116544
    (T) energy                                   =   -0.012292869806130
      * CCSD(T) total energy                     = -151.323017327339358

Stephenergy -151.32301732733936
    Psi4 stopped on: Monday, 08 March 2021 05:42PM
    Psi4 wall time for execution: 0:02:41.86

*** Psi4 exiting successfully. Buy a developer a beer!
