
    -----------------------------------------------------------------------
          Psi4: An Open-Source Ab Initio Electronic Structure Package
                               Psi4 1.3.2 release

                         Git: Rev {HEAD} ecbda83 


    R. M. Parrish, L. A. Burns, D. G. A. Smith, A. C. Simmonett,
    A. E. DePrince III, E. G. Hohenstein, U. Bozkaya, A. Yu. Sokolov,
    R. Di Remigio, R. M. Richard, J. F. Gonthier, A. M. James,
    H. R. McAlexander, A. Kumar, M. Saitow, X. Wang, B. P. Pritchard,
    P. Verma, H. F. Schaefer III, K. Patkowski, R. A. King, E. F. Valeev,
    F. A. Evangelista, J. M. Turney, T. D. Crawford, and C. D. Sherrill,
    J. Chem. Theory Comput. 13(7) pp 3185--3197 (2017).
    (doi: 10.1021/acs.jctc.7b00174)


                         Additional Contributions by
    P. Kraus, H. Kruse, M. H. Lechner, M. C. Schieber, R. A. Shaw,
    A. Alenaizan, R. Galvelis, Z. L. Glick, S. Lehtola, and J. P. Misiewicz

    -----------------------------------------------------------------------


    Psi4 started on: Tuesday, 09 March 2021 03:24PM

    Process ID: 98907
    Host:       c2-19.compute.lan
    PSIDATADIR: /apps/gb/PSI4/1.3.2/share/psi4
    Memory:     500.0 MiB
    Threads:    12
    
  ==> Input File <==

--------------------------------------------------------------------------
memory 4 GB

molecule  {
0 3
O   -1.496026095173   -0.004846085138    0.000000000000 
H   -0.544536691832    0.143145282576    0.000000000000          
H   -1.876517514047    0.878121175903    0.000000000000
O    1.648574520163   -0.059502986171    0.000000000000
}
set {
basis aug-cc-pvtz
reference uhf
e_convergence 10
scf_type pk
freeze_core true
}

set ccenergy {
e_convergence 10
r_convergence 10
}

e = energy('ccsd(t)')

print_out('Stephenergy {}'.format(e))

--------------------------------------------------------------------------

  Memory set to   3.725 GiB by Python driver.

*** tstart() called on c2-19.compute.lan
*** at Tue Mar  9 15:24:32 2021

   => Loading Basis Set <=

    Name: AUG-CC-PVTZ
    Role: ORBITAL
    Keyword: BASIS
    atoms 1, 4 entry O          line   327 file /apps/gb/PSI4/1.3.2/share/psi4/basis/aug-cc-pvtz.gbs 
    atoms 2-3  entry H          line    36 file /apps/gb/PSI4/1.3.2/share/psi4/basis/aug-cc-pvtz.gbs 


         ---------------------------------------------------------
                                   SCF
               by Justin Turney, Rob Parrish, Andy Simmonett
                          and Daniel G. A. Smith
                              UHF Reference
                       12 Threads,   3814 MiB Core
         ---------------------------------------------------------

  ==> Geometry <==

    Molecular point group: cs
    Full point group: Cs

    Geometry (in Angstrom), charge = 0, multiplicity = 3:

       Center              X                  Y                   Z               Mass       
    ------------   -----------------  -----------------  -----------------  -----------------
         O           -1.496026095173    -0.004846085138     0.000000000000    15.994914619570
         H           -0.544536691832     0.143145282576     0.000000000000     1.007825032230
         H           -1.876517514047     0.878121175903     0.000000000000     1.007825032230
         O            1.648574520163    -0.059502986171     0.000000000000    15.994914619570

  Running in cs symmetry.

  Rotational constants: A =     23.05818  B =      0.20252  C =      0.20075 [cm^-1]
  Rotational constants: A = 691266.83128  B =   6071.31297  C =   6018.45362 [MHz]
  Nuclear repulsion =   22.998445972692291

  Charge       = 0
  Multiplicity = 3
  Electrons    = 18
  Nalpha       = 10
  Nbeta        = 8

  ==> Algorithm <==

  SCF Algorithm Type is PK.
  DIIS enabled.
  MOM disabled.
  Fractional occupation disabled.
  Guess Type is SAD.
  Energy threshold   = 1.00e-10
  Density threshold  = 1.00e-08
  Integral threshold = 0.00e+00

  ==> Primary Basis <==

  Basis Set: AUG-CC-PVTZ
    Blend: AUG-CC-PVTZ
    Number of shells: 46
    Number of basis function: 138
    Number of Cartesian functions: 160
    Spherical Harmonics?: true
    Max angular momentum: 3

  ==> Pre-Iterations <==

   -------------------------------------------------------
    Irrep   Nso     Nmo     Nalpha   Nbeta   Ndocc  Nsocc
   -------------------------------------------------------
     A'        92      92       0       0       0       0
     A"        46      46       0       0       0       0
   -------------------------------------------------------
    Total     138     138      10       8       8       2
   -------------------------------------------------------

  ==> Integral Setup <==

  Using in-core PK algorithm.
   Calculation information:
      Number of atoms:                   4
      Number of AO shells:              46
      Number of primitives:             82
      Number of atomic orbitals:       160
      Number of basis functions:       138

      Integral cutoff                 1.00e-12
      Number of threads:                12

  Performing in-core PK
  Using 91996872 doubles for integral storage.
  We computed 903712 shell quartets total.
  Whereas there are 584821 unique shell quartets.
    54.53 percent of shell quartets recomputed by reordering.

  ==> DiskJK: Disk-Based J/K Matrices <==

    J tasked:                  Yes
    K tasked:                  Yes
    wK tasked:                  No
    Memory [MiB]:             2861
    Schwarz Cutoff:          1E-12

    OpenMP threads:             12

  Minimum eigenvalue in the overlap matrix is 2.9372299481E-04.
  Using Symmetric Orthogonalization.

  SCF Guess: Superposition of Atomic Densities via on-the-fly atomic UHF.

  ==> Iterations <==

                        Total Energy        Delta E     RMS |[F,P]|

   @UHF iter SAD:  -149.40250844963055   -1.49403e+02   0.00000e+00 
   @UHF iter   1:  -150.76327084054486   -1.36076e+00   5.05683e-03 DIIS
   @UHF iter   2:  -150.83778632911253   -7.45155e-02   3.28460e-03 DIIS
   @UHF iter   3:  -150.87306508102617   -3.52788e-02   3.93735e-04 DIIS
   @UHF iter   4:  -150.87418111297535   -1.11603e-03   1.30866e-04 DIIS
   @UHF iter   5:  -150.87430810879010   -1.26996e-04   5.11961e-05 DIIS
   @UHF iter   6:  -150.87434237028396   -3.42615e-05   1.54181e-05 DIIS
   @UHF iter   7:  -150.87434619225527   -3.82197e-06   5.55483e-06 DIIS
   @UHF iter   8:  -150.87434704517221   -8.52917e-07   4.40384e-06 DIIS
   @UHF iter   9:  -150.87434777070757   -7.25535e-07   4.28569e-06 DIIS
   @UHF iter  10:  -150.87434888466453   -1.11396e-06   4.22636e-06 DIIS
   @UHF iter  11:  -150.87435498248294   -6.09782e-06   3.95344e-06 DIIS
   @UHF iter  12:  -150.87437089171135   -1.59092e-05   3.60840e-06 DIIS
   @UHF iter  13:  -150.87437345161965   -2.55991e-06   3.13409e-06 DIIS
   @UHF iter  14:  -150.87438940134331   -1.59497e-05   7.25417e-06 DIIS
   @UHF iter  15:  -150.87438937080907    3.05342e-08   5.80810e-06 DIIS
   @UHF iter  16:  -150.87439110002299   -1.72921e-06   6.01105e-06 DIIS
   @UHF iter  17:  -150.87439127944742   -1.79424e-07   2.55369e-06 DIIS
   @UHF iter  18:  -150.87439135095417   -7.15067e-08   1.22751e-06 DIIS
   @UHF iter  19:  -150.87439136169021   -1.07360e-08   2.50351e-07 DIIS
   @UHF iter  20:  -150.87439136187643   -1.86219e-10   1.78973e-07 DIIS
   @UHF iter  21:  -150.87439136205481   -1.78375e-10   5.48623e-09 DIIS
   @UHF iter  22:  -150.87439136205595   -1.13687e-12   1.14598e-09 DIIS
  Energy and wave function converged.


  ==> Post-Iterations <==

   @Spin Contamination Metric:   9.369245904E-03
   @S^2 Expected:                2.000000000E+00
   @S^2 Observed:                2.009369246E+00
   @S   Expected:                1.000000000E+00
   @S   Observed:                1.000000000E+00

    Orbital Energies [Eh]
    ---------------------

    Alpha Occupied:                                                       

       1Ap   -20.733635     2Ap   -20.558426     3Ap    -1.443038  
       4Ap    -1.342628     5Ap    -0.733753     1App   -0.733375  
       6Ap    -0.710160     7Ap    -0.634981     8Ap    -0.574619  
       2App   -0.501612  

    Alpha Virtual:                                                        

       9Ap     0.034276    10Ap     0.053450    11Ap     0.128008  
       3App    0.132739    12Ap     0.148137    13Ap     0.160836  
      14Ap     0.183946     4App    0.187029    15Ap     0.214472  
      16Ap     0.242299    17Ap     0.265243     5App    0.286261  
      18Ap     0.303376     6App    0.321359    19Ap     0.365829  
      20Ap     0.406092    21Ap     0.460813    22Ap     0.568092  
       7App    0.602137    23Ap     0.608618    24Ap     0.628653  
      25Ap     0.679774     8App    0.712081    26Ap     0.714754  
       9App    0.736696    10App    0.748576    27Ap     0.753718  
      28Ap     0.813522    11App    0.825929    29Ap     0.836837  
      12App    0.890983    30Ap     0.891333    31Ap     0.924267  
      32Ap     0.946382    13App    0.947628    33Ap     0.951939  
      14App    0.973714    34Ap     0.979441    35Ap     1.043799  
      36Ap     1.133659    15App    1.157049    37Ap     1.170202  
      38Ap     1.189298    39Ap     1.263872    16App    1.297173  
      40Ap     1.321188    17App    1.527978    41Ap     1.585834  
      18App    1.599054    42Ap     1.716948    43Ap     1.812770  
      44Ap     1.844699    45Ap     1.977162    19App    1.977246  
      46Ap     1.978115    20App    2.013096    47Ap     2.017827  
      21App    2.050400    48Ap     2.062953    22App    2.125506  
      49Ap     2.156329    50Ap     2.178616    23App    2.216906  
      24App    2.303317    51Ap     2.312475    52Ap     2.342494  
      53Ap     2.417124    25App    2.445412    54Ap     2.459816  
      55Ap     2.498602    26App    2.531717    56Ap     2.639381  
      57Ap     2.713197    27App    2.728590    58Ap     2.739098  
      59Ap     2.862186    60Ap     2.932787    28App    2.944231  
      61Ap     3.698278    62Ap     3.898691    29App    4.037104  
      30App    4.062850    63Ap     4.074817    31App    4.180180  
      64Ap     4.209594    65Ap     4.267018    32App    4.301945  
      33App    4.391644    66Ap     4.406943    34App    4.431280  
      67Ap     4.443443    68Ap     4.602256    69Ap     4.779999  
      70Ap     4.961520    35App    5.155501    71Ap     5.172094  
      72Ap     5.299694    73Ap     5.389533    36App    5.525748  
      74Ap     5.691423    75Ap     6.189552    37App    6.311808  
      76Ap     6.311840    38App    6.376161    77Ap     6.378998  
      78Ap     6.523688    39App    6.523711    79Ap     6.561998  
      80Ap     6.642728    40App    6.735863    81Ap     6.814046  
      41App    6.819879    82Ap     6.922794    42App    6.937316  
      83Ap     6.963221    84Ap     7.051664    43App    7.149172  
      44App    7.272675    85Ap     7.325808    45App    7.326357  
      86Ap     7.364532    46App    7.438497    87Ap     7.650557  
      88Ap     7.946483    89Ap     7.963364    90Ap     8.810354  
      91Ap     9.546866    92Ap    16.340625  

    Beta Occupied:                                                        

       1Ap   -20.654848     2Ap   -20.558564     3Ap    -1.343242  
       4Ap    -1.100585     5Ap    -0.709220     6Ap    -0.580105  
       7Ap    -0.541426     1App   -0.501657  

    Beta Virtual:                                                         

       8Ap     0.034386     2App    0.048986     9Ap     0.049174  
      10Ap     0.055231    11Ap     0.144031    12Ap     0.152658  
       3App    0.161193    13Ap     0.178231    14Ap     0.207912  
      15Ap     0.225200     4App    0.226961    16Ap     0.251174  
      17Ap     0.266498     5App    0.286476    18Ap     0.305539  
       6App    0.325364    19Ap     0.369785    20Ap     0.417340  
      21Ap     0.462095    22Ap     0.571740    23Ap     0.629114  
       7App    0.634494    24Ap     0.640635    25Ap     0.684417  
      26Ap     0.715375     8App    0.723925     9App    0.740072  
      10App    0.750326    27Ap     0.771113    28Ap     0.819836  
      29Ap     0.865949    11App    0.869400    30Ap     0.921003  
      12App    0.942558    31Ap     0.943099    13App    0.949735  
      32Ap     0.953312    33Ap     0.970301    34Ap     1.018762  
      14App    1.020950    35Ap     1.046521    15App    1.160334  
      36Ap     1.164255    37Ap     1.174653    38Ap     1.215827  
      39Ap     1.266898    16App    1.307790    40Ap     1.330156  
      17App    1.528707    41Ap     1.588338    18App    1.600575  
      42Ap     1.742257    43Ap     1.818799    44Ap     1.856224  
      45Ap     1.985740    46Ap     2.015214    19App    2.015220  
      20App    2.055544    47Ap     2.067533    21App    2.174651  
      48Ap     2.176360    22App    2.179669    49Ap     2.197019  
      50Ap     2.247896    23App    2.253020    24App    2.306775  
      51Ap     2.318211    52Ap     2.364123    53Ap     2.421303  
      25App    2.448033    54Ap     2.460573    55Ap     2.504980  
      26App    2.540214    56Ap     2.646537    57Ap     2.727538  
      27App    2.729993    58Ap     2.746267    59Ap     2.864060  
      60Ap     2.936940    28App    2.944855    61Ap     3.698971  
      62Ap     3.901286    29App    4.039472    30App    4.148259  
      63Ap     4.192671    64Ap     4.243688    31App    4.263631  
      65Ap     4.280297    32App    4.301991    33App    4.391717  
      66Ap     4.411562    34App    4.431991    67Ap     4.487411  
      68Ap     4.604386    69Ap     4.781501    70Ap     4.963622  
      35App    5.155493    71Ap     5.172472    72Ap     5.299947  
      73Ap     5.390803    36App    5.525828    74Ap     5.691806  
      75Ap     6.190815    76Ap     6.420662    37App    6.420666  
      38App    6.451301    77Ap     6.454131    78Ap     6.535697  
      39App    6.577472    79Ap     6.605917    80Ap     6.687318  
      40App    6.741897    81Ap     6.924637    41App    7.004952  
      82Ap     7.006620    42App    7.046514    83Ap     7.069815  
      84Ap     7.131407    43App    7.151612    44App    7.272947  
      85Ap     7.326115    45App    7.327079    86Ap     7.365218  
      46App    7.438917    87Ap     7.651373    88Ap     7.947327  
      89Ap     7.963789    90Ap     8.812046    91Ap     9.621751  
      92Ap    16.340936  

    Final Occupation by Irrep:
             Ap   App 
    DOCC [     7,    1 ]
    SOCC [     1,    1 ]

  @UHF Final Energy:  -150.87439136205595

   => Energetics <=

    Nuclear Repulsion Energy =             22.9984459726922914
    One-Electron Energy =                -253.7897981795813394
    Two-Electron Energy =                  79.9169608448331132
    Total Energy =                       -150.8743913620559454

  UHF NO Occupations:
  HONO-2 :    7 Ap 1.9970272
  HONO-1 :    8 Ap 1.0000000
  HONO-0 :    2App 1.0000000
  LUNO+0 :    9 Ap 0.0029728
  LUNO+1 :   10 Ap 0.0017127
  LUNO+2 :   11 Ap 0.0000024
  LUNO+3 :   12 Ap 0.0000019


Computation Completed


Properties will be evaluated at   0.000000,   0.000000,   0.000000 [a0]

Properties computed using the SCF density matrix

  Nuclear Dipole Moment: [e a0]
     X:    -2.2689      Y:     0.9571      Z:     0.0000

  Electronic Dipole Moment: [e a0]
     X:     2.7423      Y:    -0.2855      Z:     0.0000

  Dipole Moment: [e a0]
     X:     0.4734      Y:     0.6716      Z:     0.0000     Total:     0.8216

  Dipole Moment: [D]
     X:     1.2032      Y:     1.7069      Z:     0.0000     Total:     2.0883


*** tstop() called on c2-19.compute.lan at Tue Mar  9 15:24:38 2021
Module time:
	user time   =      58.96 seconds =       0.98 minutes
	system time =       2.60 seconds =       0.04 minutes
	total time  =          6 seconds =       0.10 minutes
Total time:
	user time   =      58.96 seconds =       0.98 minutes
	system time =       2.60 seconds =       0.04 minutes
	total time  =          6 seconds =       0.10 minutes
 MINTS: Wrapper to libmints.
   by Justin Turney

   Calculation information:
      Number of threads:                12
      Number of atoms:                   4
      Number of AO shells:              46
      Number of SO shells:              46
      Number of primitives:             82
      Number of atomic orbitals:       160
      Number of basis functions:       138

      Number of irreps:                  2
      Integral cutoff                 0.00e+00
      Number of functions per irrep: [  92   46 ]

 OEINTS: Overlap, kinetic, potential, dipole, and quadrupole integrals
         stored in file 35.

      Computing two-electron integrals...done
      Computed 22925278 non-zero two-electron integrals.
        Stored in file 33.


*** tstart() called on c2-19.compute.lan
*** at Tue Mar  9 15:24:42 2021


	Wfn Parameters:
	--------------------
	Wavefunction         = CCSD_T
	Number of irreps     = 2
	Number of MOs        = 138
	Number of active MOs = 136
	AO-Basis             = NONE
	Semicanonical        = false
	Reference            = UHF
	Print Level          = 1

	IRREP	# MOs	# FZDC	# DOCC	# SOCC	# VIRT	# FZVR
	-----	-----	------	------	------	------	------
	 Ap	   92	    2	    5	    1	    84	    0
	 App	   46	    0	    1	    1	    44	    0
	Transforming integrals...
	IWL integrals will be deleted.
	(OO|OO)...
	Presorting SO-basis two-electron integrals.
	Sorting File: SO Ints (nn|nn) nbuckets = 1
	Transforming the one-electron integrals and constructing Fock matrices
	Starting AA/AB first half-transformation.
	Sorting AA/AB half-transformed integrals.
	Starting BB first half-transformation.
	Sorting BB half-transformed integrals.
	First half integral transformation complete.
	Starting AA second half-transformation.
	Starting AB second half-transformation.
	Starting BB second half-transformation.
	Two-electron integral transformation complete.
	(OO|OV)...
	Starting AA second half-transformation.
	Starting AB second half-transformation.
	Starting BB second half-transformation.
	Two-electron integral transformation complete.
	(OO|VV)...
	Starting AA second half-transformation.
	Starting AB second half-transformation.
	Starting BB second half-transformation.
	Two-electron integral transformation complete.
	(OV|OO)...
	Starting AA/AB first half-transformation.
	Sorting AA/AB half-transformed integrals.
	Starting BB first half-transformation.
	Sorting BB half-transformed integrals.
	First half integral transformation complete.
	Starting AA second half-transformation.
	Starting AB second half-transformation.
	Starting BB second half-transformation.
	Two-electron integral transformation complete.
	(OV|OV)...
	Starting AA second half-transformation.
	Starting AB second half-transformation.
	Starting BB second half-transformation.
	Two-electron integral transformation complete.
	(OV|VV)...
	Starting AA second half-transformation.
	Starting AB second half-transformation.
	Starting BB second half-transformation.
	Two-electron integral transformation complete.
	(VV|OO)...
	Starting AA/AB first half-transformation.
	Sorting AA/AB half-transformed integrals.
	Starting BB first half-transformation.
	Sorting BB half-transformed integrals.
	First half integral transformation complete.
	Starting AA second half-transformation.
	Starting AB second half-transformation.
	Starting BB second half-transformation.
	Two-electron integral transformation complete.
	(VV|OV)...
	Starting AA second half-transformation.
	Starting AB second half-transformation.
	Starting BB second half-transformation.
	Two-electron integral transformation complete.
	(VV|VV)...
	Starting AA second half-transformation.
	Starting AB second half-transformation.
	Starting BB second half-transformation.
	Two-electron integral transformation complete.
	Frozen core energy     =   -125.89267722998810

	Size of irrep 0 of <AB|CD> integrals:     19.643 (MW) /    157.141 (MB)
	Size of irrep 1 of <AB|CD> integrals:     13.660 (MW) /    109.283 (MB)
	Total:                                    33.303 (MW) /    266.424 (MB)

	Size of irrep 0 of <ab|cd> integrals:     20.794 (MW) /    166.349 (MB)
	Size of irrep 1 of <ab|cd> integrals:     14.631 (MW) /    117.045 (MB)
	Total:                                    35.424 (MW) /    283.394 (MB)

	Size of irrep 0 of <Ab|Cd> integrals:     83.174 (MW) /    665.395 (MB)
	Size of irrep 1 of <Ab|Cd> integrals:     56.550 (MW) /    452.403 (MB)
	Total:                                   139.725 (MW) /   1117.798 (MB)

	Size of irrep 0 of <IA|BC> integrals:      5.323 (MW) /     42.586 (MB)
	Size of irrep 1 of <IA|BC> integrals:      3.193 (MW) /     25.547 (MB)
	Total:                                     8.517 (MW) /     68.133 (MB)

	Size of irrep 0 of <ia|bc> integrals:      4.348 (MW) /     34.780 (MB)
	Size of irrep 1 of <ia|bc> integrals:      2.372 (MW) /     18.972 (MB)
	Total:                                     6.719 (MW) /     53.752 (MB)

	Size of irrep 0 of <Ia|Bc> integrals:      5.472 (MW) /     43.776 (MB)
	Size of irrep 1 of <Ia|Bc> integrals:      3.309 (MW) /     26.470 (MB)
	Total:                                     8.781 (MW) /     70.246 (MB)

	Size of irrep 0 of <iA|bC> integrals:      4.232 (MW) /     33.853 (MB)
	Size of irrep 1 of <iA|bC> integrals:      2.286 (MW) /     18.289 (MB)
	Total:                                     6.518 (MW) /     52.142 (MB)

	Size of irrep 0 of tIjAb amplitudes:       0.292 (MW) /      2.335 (MB)
	Size of irrep 1 of tIjAb amplitudes:       0.120 (MW) /      0.963 (MB)
	Total:                                     0.412 (MW) /      3.297 (MB)

	Nuclear Rep. energy          =     22.99844597269229
	SCF energy                   =   -150.87439136205595
	One-electron energy          =    -84.50991665417260
	Two-electron (AA) energy     =     10.15402719107542
	Two-electron (BB) energy     =      5.40153362536761
	Two-electron (AB) energy     =     20.97419573296841
	Two-electron energy          =     36.52975654941145
	Reference energy             =   -150.87439136205697

*** tstop() called on c2-19.compute.lan at Tue Mar  9 15:25:30 2021
Module time:
	user time   =     274.11 seconds =       4.57 minutes
	system time =      23.28 seconds =       0.39 minutes
	total time  =         48 seconds =       0.80 minutes
Total time:
	user time   =     340.38 seconds =       5.67 minutes
	system time =      26.83 seconds =       0.45 minutes
	total time  =         58 seconds =       0.97 minutes
            **************************
            *                        *
            *        CCENERGY        *
            *                        *
            **************************

    Nuclear Rep. energy (wfn)     =   22.998445972692291
    SCF energy          (wfn)     = -150.874391362055945
    Reference energy    (file100) = -150.874391362056969

    Input parameters:
    -----------------
    Wave function   =     CCSD_T
    Reference wfn   =     UHF
    Brueckner       =     No
    Memory (Mbytes) =     4000.0
    Maxiter         =     50
    R_Convergence   =     1.0e-10
    E_Convergence   =     1.0e-10
    Restart         =     Yes
    DIIS            =     Yes
    AO Basis        =     NONE
    ABCD            =     NEW
    Cache Level     =     2
    Cache Type      =     LRU
    Print Level     =     1
    Num. of threads =     12
    # Amps to Print =     10
    Print MP2 Amps? =     No
    Analyze T2 Amps =     No
    Print Pair Ener =     No
    Local CC        =     No
    SCS-MP2         =     False
    SCSN-MP2        =     False
    SCS-CCSD        =     False

MP2 correlation energy -0.4166866849664672
                Solving CC Amplitude Equations
                ------------------------------
  Iter             Energy              RMS        T1Diag      D1Diag    New D1Diag    D2Diag
  ----     ---------------------    ---------   ----------  ----------  ----------   --------
     0        -0.416686684966467    0.000e+00    0.000000    0.000000    0.000000    0.000000
     1        -0.427394142248493    5.692e-02    0.010565    0.000000    0.000000    0.000000
     2        -0.435485960321097    1.690e-02    0.011045    0.000000    0.000000    0.000000
     3        -0.437608243807004    8.589e-03    0.012921    0.000000    0.000000    0.000000
     4        -0.437482524248437    2.538e-03    0.013290    0.000000    0.000000    0.000000
     5        -0.437467633523681    1.329e-03    0.013449    0.000000    0.000000    0.000000
     6        -0.437495077011169    5.176e-04    0.013472    0.000000    0.000000    0.000000
     7        -0.437499786712997    2.703e-04    0.013467    0.000000    0.000000    0.000000
     8        -0.437500361334624    1.020e-04    0.013463    0.000000    0.000000    0.000000
     9        -0.437501758300274    7.591e-05    0.013464    0.000000    0.000000    0.000000
    10        -0.437500140855673    6.494e-05    0.013466    0.000000    0.000000    0.000000
    11        -0.437500301381082    6.172e-05    0.013467    0.000000    0.000000    0.000000
    12        -0.437500023812787    5.990e-05    0.013469    0.000000    0.000000    0.000000
    13        -0.437500025993493    5.878e-05    0.013472    0.000000    0.000000    0.000000
    14        -0.437501206492725    5.697e-05    0.013490    0.000000    0.000000    0.000000
    15        -0.437501594510836    5.050e-05    0.013562    0.000000    0.000000    0.000000
    16        -0.437501355301864    3.366e-05    0.013699    0.000000    0.000000    0.000000
    17        -0.437501000746241    1.619e-05    0.013767    0.000000    0.000000    0.000000
    18        -0.437500862033618    7.599e-06    0.013785    0.000000    0.000000    0.000000
    19        -0.437501117936716    3.374e-06    0.013789    0.000000    0.000000    0.000000
    20        -0.437501230977636    1.515e-06    0.013790    0.000000    0.000000    0.000000
    21        -0.437501239295714    6.077e-07    0.013790    0.000000    0.000000    0.000000
    22        -0.437501240908416    2.957e-07    0.013790    0.000000    0.000000    0.000000
    23        -0.437501239655145    1.552e-07    0.013790    0.000000    0.000000    0.000000
    24        -0.437501238775504    6.508e-08    0.013790    0.000000    0.000000    0.000000
    25        -0.437501239778398    3.567e-08    0.013790    0.000000    0.000000    0.000000
    26        -0.437501240262453    2.799e-08    0.013790    0.000000    0.000000    0.000000
    27        -0.437501240425692    2.636e-08    0.013790    0.000000    0.000000    0.000000
    28        -0.437501240367000    2.563e-08    0.013790    0.000000    0.000000    0.000000
    29        -0.437501240194228    2.501e-08    0.013790    0.000000    0.000000    0.000000
    30        -0.437501239907264    2.404e-08    0.013790    0.000000    0.000000    0.000000
    31        -0.437501240086383    2.100e-08    0.013790    0.000000    0.000000    0.000000
    32        -0.437501240466258    1.162e-08    0.013790    0.000000    0.000000    0.000000
    33        -0.437501240590369    5.163e-09    0.013790    0.000000    0.000000    0.000000
    34        -0.437501240657070    2.098e-09    0.013790    0.000000    0.000000    0.000000
    35        -0.437501240664521    7.727e-10    0.013790    0.000000    0.000000    0.000000
    36        -0.437501240665591    3.297e-10    0.013790    0.000000    0.000000    0.000000
    37        -0.437501240664222    1.404e-10    0.013790    0.000000    0.000000    0.000000
    38        -0.437501240666005    6.419e-11    0.013790    0.000000    0.000000    0.000000

    Iterations converged.


    Largest TIA Amplitudes:
              7  87        -0.0121845069
              7  84        -0.0116474051
              7  85        -0.0094442957
              4   3         0.0090237185
              6  84        -0.0080678866
              5   9        -0.0076419451
              4  10         0.0071868185
              5   2        -0.0069736819
              2   2         0.0069233456
              7  86        -0.0063402227

    Largest Tia Amplitudes:
              5  86        -0.0122032950
              5  89        -0.0117270848
              5  85        -0.0101750785
              4   1        -0.0096768652
              3   3         0.0089453349
              3  10        -0.0069568402
              5  88        -0.0065663658
              5  87        -0.0061783794
              3  11         0.0060586146
              4   7        -0.0055400027

    Largest TIJAB Amplitudes:
      6   2  92  20         0.0105049162
      6   2 101  38        -0.0100695916
      6   4  92  29         0.0094252338
      6   2  92  21        -0.0091698729
      4   2  41  40         0.0083025944
      4   2  29  20        -0.0079683024
      6   2 102  38         0.0074350325
      4   2  29  21         0.0074219278
      6   2 111  54        -0.0073695422
      6   2  88  38         0.0073330348

    Largest Tijab Amplitudes:
      4   1  42   1         0.0069754756
      4   1  91  85        -0.0066089526
      4   1  19   1         0.0062698709
      5   2  94  13        -0.0062410576
      4   1 106  85        -0.0062346017
      5   2  89  13        -0.0059215051
      5   2 100  17        -0.0058954864
      5   2  92  17         0.0058627720
      5   2  86  13        -0.0057281686
      3   2  18  15         0.0052886169

    Largest TIjAb Amplitudes:
      3   2  12  13        -0.0183883222
      2   1  38   1        -0.0169782450
      6   1  38  85        -0.0167719149
      4   4  29  30        -0.0156517473
      4   1 103  85        -0.0152158389
      2   1 101  85         0.0150428096
      6   1 101   1        -0.0146272047
      4   1  41   1        -0.0145239729
      2   1  88  85        -0.0143973722
      6   1  88   1         0.0140186918

    SCF energy       (wfn)                    = -150.874391362055945
    Reference energy (file100)                = -150.874391362056969

    Opposite-spin MP2 correlation energy      =   -0.314675996363207
    Same-spin MP2 correlation energy          =   -0.102010688603260
    MP2 correlation energy                    =   -0.416686684966467
      * MP2 total energy                      = -151.291078047023433

    Opposite-spin CCSD correlation energy     =   -0.342211918851318
    Same-spin CCSD correlation energy         =   -0.095289321814687
    CCSD correlation energy                   =   -0.437501240666005
      * CCSD total energy                     = -151.311892602722963

            **************************
            *                        *
            *        CCTRIPLES       *
            *                        *
            **************************


    Wave function   =    CCSD_T
    Reference wfn   =      UHF

    Nuclear Rep. energy (wfn)                =   22.998445972692291
    SCF energy          (wfn)                = -150.874391362055945
    Reference energy    (file100)            = -150.874391362056969
    CCSD energy         (file100)            =   -0.437501240666005
    Total CCSD energy   (file100)            = -151.311892602722963

    Number of ijk index combinations:
    Spin Case AAA:                                  56
    Spin Case BBB:                                  20
    Spin Case AAB:                                 168
    Spin Case ABB:                                 120
    AAA (T) energy                             =   -0.000400108133261
    BBB (T) energy                             =   -0.000203003089035
    AAB (T) energy                             =   -0.006748860540185
    ABB (T) energy                             =   -0.005014902017574
    (T) energy                                   =   -0.012366873780054
      * CCSD(T) total energy                     = -151.324259476503016

Stephenergy -151.32425947650302
    Psi4 stopped on: Tuesday, 09 March 2021 03:29PM
    Psi4 wall time for execution: 0:04:52.51

*** Psi4 exiting successfully. Buy a developer a beer!
