
    -----------------------------------------------------------------------
          Psi4: An Open-Source Ab Initio Electronic Structure Package
                               Psi4 1.4a2.dev191 

                         Git: Rev {master} 0ab5346 


    R. M. Parrish, L. A. Burns, D. G. A. Smith, A. C. Simmonett,
    A. E. DePrince III, E. G. Hohenstein, U. Bozkaya, A. Yu. Sokolov,
    R. Di Remigio, R. M. Richard, J. F. Gonthier, A. M. James,
    H. R. McAlexander, A. Kumar, M. Saitow, X. Wang, B. P. Pritchard,
    P. Verma, H. F. Schaefer III, K. Patkowski, R. A. King, E. F. Valeev,
    F. A. Evangelista, J. M. Turney, T. D. Crawford, and C. D. Sherrill,
    J. Chem. Theory Comput. 13(7) pp 3185--3197 (2017).
    (doi: 10.1021/acs.jctc.7b00174)


                         Additional Contributions by
    P. Kraus, H. Kruse, M. H. Lechner, M. C. Schieber, R. A. Shaw,
    A. Alenaizan, R. Galvelis, Z. L. Glick, S. Lehtola, and J. P. Misiewicz

    -----------------------------------------------------------------------


    Psi4 started on: Thursday, 25 February 2021 11:56AM

    Process ID: 55207
    Host:       c4-20.compute.lan
    PSIDATADIR: /apps/gb/PSI4/1.4.0/share/psi4
    Memory:     500.0 MiB
    Threads:    1
    
  ==> Input File <==

--------------------------------------------------------------------------
memory 32 GB
molecule {
0 2
O
H 1 R1
R1 = 0.9478992047
}
set {
basis aug-cc-pv5z
e_convergence 10
g_convergence gau_verytight
reference uhf
scf_type pk
mp2_type conv
}

set ccenergy {
e_convergence 10
r_convergence 10
}

optimize("ccsd(t)")

--------------------------------------------------------------------------

  Memory set to  29.802 GiB by Python driver.
gradient() will perform analytic gradient computation.

*** tstart() called on c4-20.compute.lan
*** at Thu Feb 25 11:56:01 2021

   => Loading Basis Set <=

    Name: AUG-CC-PV5Z
    Role: ORBITAL
    Keyword: BASIS
    atoms 1 entry O          line   541 file /apps/gb/PSI4/1.4.0/share/psi4/basis/aug-cc-pv5z.gbs 
    atoms 2 entry H          line    42 file /apps/gb/PSI4/1.4.0/share/psi4/basis/aug-cc-pv5z.gbs 


         ---------------------------------------------------------
                                   SCF
               by Justin Turney, Rob Parrish, Andy Simmonett
                          and Daniel G. A. Smith
                              UHF Reference
                        1 Threads,  30517 MiB Core
         ---------------------------------------------------------

  ==> Geometry <==

    Molecular point group: c2v
    Full point group: C_inf_v

    Geometry (in Angstrom), charge = 0, multiplicity = 2:

       Center              X                  Y                   Z               Mass       
    ------------   -----------------  -----------------  -----------------  -----------------
         O            0.000000000000     0.000000000000    -0.056186036256    15.994914619570
         H            0.000000000000     0.000000000000     0.891713168444     1.007825032230

  Running in c2v symmetry.

  Rotational constants: A = ************  B =     19.78901  C =     19.78901 [cm^-1]
  Rotational constants: A = ************  B = 593259.52428  C = 593259.52428 [MHz]
  Nuclear repulsion =    4.466105324668810

  Charge       = 0
  Multiplicity = 2
  Electrons    = 9
  Nalpha       = 5
  Nbeta        = 4

  ==> Algorithm <==

  SCF Algorithm Type is PK.
  DIIS enabled.
  MOM disabled.
  Fractional occupation disabled.
  Guess Type is SAD.
  Energy threshold   = 1.00e-10
  Density threshold  = 1.00e-10
  Integral threshold = 0.00e+00

  ==> Primary Basis <==

  Basis Set: AUG-CC-PV5Z
    Blend: AUG-CC-PV5Z
    Number of shells: 47
    Number of basis function: 207
    Number of Cartesian functions: 287
    Spherical Harmonics?: true
    Max angular momentum: 5

  ==> Pre-Iterations <==

   -------------------------------------------------------
    Irrep   Nso     Nmo     Nalpha   Nbeta   Ndocc  Nsocc
   -------------------------------------------------------
     A1        77      77       0       0       0       0
     A2        30      30       0       0       0       0
     B1        50      50       0       0       0       0
     B2        50      50       0       0       0       0
   -------------------------------------------------------
    Total     207     207       5       4       4       1
   -------------------------------------------------------

  ==> Integral Setup <==

  Using in-core PK algorithm.
   Calculation information:
      Number of atoms:                   2
      Number of AO shells:              47
      Number of primitives:             71
      Number of atomic orbitals:       287
      Number of basis functions:       207

      Integral cutoff                 1.00e-12
      Number of threads:                 1

  Performing in-core PK
  Using 463476312 doubles for integral storage.
  We computed 636756 shell quartets total.
  Whereas there are 636756 unique shell quartets.

  ==> DiskJK: Disk-Based J/K Matrices <==

    J tasked:                  Yes
    K tasked:                  Yes
    wK tasked:                  No
    Memory [MiB]:            22888
    Schwarz Cutoff:          1E-12

    OpenMP threads:              1

  Minimum eigenvalue in the overlap matrix is 1.7546156464E-05.
  Using Symmetric Orthogonalization.

  SCF Guess: Superposition of Atomic Densities via on-the-fly atomic UHF.

  ==> Iterations <==

                        Total Energy        Delta E     RMS |[F,P]|

   @UHF iter SAD:   -74.66734640449775   -7.46673e+01   0.00000e+00 
   @UHF iter   1:   -75.40457396110338   -7.37228e-01   2.17622e-03 DIIS
   @UHF iter   2:   -75.42498154829281   -2.04076e-02   8.31977e-04 DIIS
   @UHF iter   3:   -75.42773077958657   -2.74923e-03   2.43148e-04 DIIS
   @UHF iter   4:   -75.42817172348313   -4.40944e-04   7.41707e-05 DIIS
   @UHF iter   5:   -75.42824372633780   -7.20029e-05   3.26299e-05 DIIS
   @UHF iter   6:   -75.42826291349428   -1.91872e-05   1.16058e-05 DIIS
   @UHF iter   7:   -75.42826588877719   -2.97528e-06   3.85038e-06 DIIS
   @UHF iter   8:   -75.42826622945253   -3.40675e-07   8.26475e-07 DIIS
   @UHF iter   9:   -75.42826624094189   -1.14894e-08   2.73381e-07 DIIS
   @UHF iter  10:   -75.42826624232183   -1.37993e-09   4.53848e-08 DIIS
   @UHF iter  11:   -75.42826624235656   -3.47313e-11   5.55088e-09 DIIS
   @UHF iter  12:   -75.42826624235693   -3.69482e-13   1.24009e-09 DIIS
   @UHF iter  13:   -75.42826624235693    0.00000e+00   2.81627e-10 DIIS
   @UHF iter  14:   -75.42826624235690    2.84217e-14   6.25231e-11 DIIS
  Energy and wave function converged.


  ==> Post-Iterations <==

   @Spin Contamination Metric:   6.884851174E-03
   @S^2 Expected:                7.500000000E-01
   @S^2 Observed:                7.568848512E-01
   @S   Expected:                5.000000000E-01
   @S   Observed:                5.000000000E-01

    Orbital Energies [Eh]
    ---------------------

    Alpha Occupied:                                                       

       1A1   -20.635987     2A1    -1.395592     3A1    -0.689104  
       1B2    -0.659782     1B1    -0.562701  

    Alpha Virtual:                                                        

       4A1     0.024207     5A1     0.088839     2B2     0.103391  
       2B1     0.108749     6A1     0.138176     3B2     0.179799  
       7A1     0.182579     3B1     0.183117     8A1     0.288192  
       9A1     0.399245     1A2     0.399925    10A1     0.425244  
       4B2     0.453843     4B1     0.469363     5B2     0.474404  
       5B1     0.484464    11A1     0.487903    12A1     0.513862  
       2A2     0.527480    13A1     0.527793     6B2     0.547098  
       6B1     0.557079    14A1     0.667232     7B2     0.972736  
       7B1     0.975070     8B2     0.976067     8B1     0.990951  
      15A1     0.995634    16A1     1.081128     9B2     1.128536  
      17A1     1.138375     9B1     1.140988     3A2     1.168217  
      18A1     1.171056     4A2     1.209157    19A1     1.210494  
      10B2     1.245443    20A1     1.249484    10B1     1.254322  
      11B2     1.278549    11B1     1.278637     5A2     1.325577  
      21A1     1.325898    22A1     1.403824    12B2     1.472270  
      12B1     1.502084    23A1     1.720487    13B2     1.864826  
      13B1     1.903851    24A1     2.205287     6A2     2.302761  
      25A1     2.303727    14B2     2.314512    14B1     2.329733  
       7A2     2.568420    26A1     2.568420    27A1     2.614625  
      15B2     2.649170    15B1     2.672506    28A1     2.722475  
      16B2     2.835435    16B1     2.835488    17B2     2.912958  
      17B1     2.917178    29A1     2.917867    18B2     2.926477  
       8A2     2.932165    30A1     2.944279    18B1     2.946855  
       9A2     3.039763    31A1     3.039934    32A1     3.129168  
      10A2     3.129168    33A1     3.144006    11A2     3.187534  
      34A1     3.187616    19B2     3.284312    19B1     3.305171  
      20B2     3.322292    20B1     3.322342    35A1     3.454439  
      21B2     3.558564    21B1     3.582590    36A1     3.654646  
      12A2     3.832635    37A1     3.834352    38A1     4.250714  
      22B2     4.546547    22B1     4.583921    23B2     4.694832  
      23B1     4.694885    24B2     4.755724    24B1     4.807168  
      39A1     5.080055    13A2     5.431758    40A1     5.431938  
      41A1     5.631394    25B2     5.801518    25B1     5.826457  
      14A2     5.916513    42A1     5.916740    26B2     6.166516  
      26B1     6.184722    27B2     6.184722    27B1     6.188868  
      43A1     6.289046    15A2     6.468814    44A1     6.468814  
      28B2     6.658257    28B1     6.705342    45A1     6.914785  
      46A1     7.085922    16A2     7.086000    47A1     7.105800  
      29B2     7.157995    29B1     7.161557    30B2     7.184447  
      17A2     7.188925    48A1     7.194602    30B1     7.213308  
      31B2     7.238303    31B1     7.239718    32B2     7.602118  
      32B1     7.602143    49A1     7.725706    18A2     7.727527  
      50A1     7.809246    51A1     7.904478    19A2     7.904930  
      33B2     8.538321    33B1     8.577465    52A1     8.586663  
      53A1     8.839921    34B2     9.162721    34B1     9.208122  
      20A2     9.449805    54A1     9.450307    55A1    10.398063  
      35B2    10.458917    35B1    10.505572    56A1    12.812248  
      36B2    12.982906    36B1    12.982906    21A2    13.144590  
      57A1    13.144590    58A1    13.528458    22A2    13.528595  
      37B2    13.951335    37B1    13.951338    59A1    14.107035  
      23A2    14.135507    60A1    14.135514    38B2    14.238047  
      38B1    14.255536    39B2    14.502819    39B1    14.519769  
      61A1    14.765049    62A1    15.632581    24A2    15.768204  
      63A1    15.769915    40B2    15.991714    40B1    16.031743  
      41B2    16.210631    41B1    16.210631    25A2    16.355895  
      64A1    16.355895    42B2    16.699499    42B1    16.750694  
      65A1    16.871310    43B2    16.916600    43B1    16.916608  
      66A1    17.910007    26A2    17.918831    44B2    17.947401  
      44B1    17.981636    67A1    17.997524    45B2    18.169873  
      45B1    18.198401    68A1    18.718628    69A1    19.068615  
      27A2    19.068616    46B2    19.175306    46B1    19.175314  
      47B2    19.223941    47B1    19.223952    70A1    19.601417  
      28A2    19.610412    71A1    19.697852    29A2    20.099373  
      72A1    20.100534    48B2    20.598501    48B1    20.652989  
      73A1    21.249636    30A2    22.425804    74A1    22.426389  
      49B2    23.176012    49B1    23.227110    50B2    24.263728  
      50B1    24.309358    75A1    26.349032    76A1    26.398301  
      77A1    65.083261  

    Beta Occupied:                                                        

       1A1   -20.596494     2A1    -1.238609     3A1    -0.644781  
       1B1    -0.514867  

    Beta Virtual:                                                         

       4A1     0.025038     1B2     0.055661     5A1     0.089707  
       2B1     0.109788     6A1     0.141210     2B2     0.147113  
       3B1     0.183082     7A1     0.184286     3B2     0.191280  
       8A1     0.292945     1A2     0.405073     9A1     0.405123  
      10A1     0.428291     4B1     0.472893     4B2     0.479912  
       5B1     0.484336    11A1     0.490931     5B2     0.507994  
      12A1     0.519144     2A2     0.527836    13A1     0.528093  
       6B1     0.558618     6B2     0.576985    14A1     0.676999  
       7B1     0.978911     7B2     0.978927     8B1     0.991863  
      15A1     1.002605     8B2     1.005763    16A1     1.087045  
       9B2     1.132747     9B1     1.140372    17A1     1.147554  
       3A2     1.174504    18A1     1.175090     4A2     1.231062  
      19A1     1.231214    10B2     1.253501    10B1     1.254684  
      20A1     1.255713    11B2     1.279125    11B1     1.279129  
       5A2     1.339537    21A1     1.340041    22A1     1.414521  
      12B1     1.507743    12B2     1.527725    23A1     1.728794  
      13B1     1.914635    13B2     1.943306    24A1     2.212457  
       6A2     2.310685    25A1     2.310946    14B2     2.320566  
      14B1     2.328257    26A1     2.574771     7A2     2.574771  
      27A1     2.626403    15B2     2.670539    15B1     2.674993  
      28A1     2.731702    16B1     2.856198    16B2     2.856200  
      17B2     2.923920    17B1     2.924655    29A1     2.932396  
       8A2     2.939046    18B2     2.940189    18B1     2.947888  
      30A1     2.948373     9A2     3.054195    31A1     3.054336  
      32A1     3.131177    10A2     3.131177    33A1     3.153383  
      11A2     3.242505    34A1     3.243510    19B1     3.308841  
      19B2     3.310377    20B1     3.323636    20B2     3.323647  
      35A1     3.468820    21B2     3.571019    21B1     3.584502  
      36A1     3.665327    12A2     3.848080    37A1     3.848390  
      38A1     4.259539    22B2     4.588543    22B1     4.591629  
      23B2     4.698458    23B1     4.698461    24B1     4.820703  
      24B2     4.833385    39A1     5.098849    40A1     5.437448  
      13A2     5.437470    41A1     5.638367    25B2     5.818517  
      25B1     5.828550    14A2     5.925091    42A1     5.925121  
      26B2     6.175269    26B1     6.189221    27B2     6.196310  
      27B1     6.196310    43A1     6.298151    44A1     6.478727  
      15A2     6.478727    28B2     6.703111    28B1     6.714932  
      45A1     6.938929    46A1     7.110449    16A2     7.110546  
      47A1     7.115101    29B2     7.176221    29B1     7.179337  
      30B2     7.195467    17A2     7.199636    48A1     7.201955  
      30B1     7.216102    31B2     7.262571    31B1     7.262699  
      32B2     7.633522    32B1     7.633524    49A1     7.756192  
      18A2     7.757258    50A1     7.816447    19A2     7.948104  
      51A1     7.948381    33B2     8.559620    33B1     8.581710  
      52A1     8.602042    53A1     8.856733    34B2     9.198921  
      34B1     9.216824    20A2     9.488128    54A1     9.488215  
      55A1    10.408407    35B2    10.502602    35B1    10.515309  
      56A1    12.841851    36B2    12.983513    36B1    12.983513  
      57A1    13.144992    21A2    13.144992    58A1    13.531687  
      22A2    13.531770    37B2    13.953401    37B1    13.953403  
      59A1    14.112678    23A2    14.134400    60A1    14.134402  
      38B2    14.242929    38B1    14.255412    39B2    14.507831  
      39B1    14.520106    61A1    14.768801    62A1    15.638475  
      24A2    15.774382    63A1    15.775232    40B2    16.025510  
      40B1    16.039191    41B2    16.235821    41B1    16.235821  
      25A2    16.376537    64A1    16.376537    42B2    16.746908  
      42B1    16.761660    65A1    16.874264    43B2    16.932881  
      43B1    16.932884    66A1    17.929740    26A2    17.934139  
      44B2    17.959077    44B1    17.983866    67A1    18.004194  
      45B2    18.183306    45B1    18.201156    68A1    18.741338  
      69A1    19.106995    27A2    19.106995    46B2    19.209033  
      46B1    19.209034    47B2    19.268537    47B1    19.268539  
      70A1    19.631910    28A2    19.636412    71A1    19.704822  
      29A2    20.127070    72A1    20.127465    48B2    20.632431  
      48B1    20.663013    73A1    21.265895    30A2    22.471613  
      74A1    22.471717    49B2    23.209027    49B1    23.235762  
      50B2    24.293661    50B1    24.317650    75A1    26.356029  
      76A1    26.409596    77A1    65.098627  

    Final Occupation by Irrep:
             A1    A2    B1    B2 
    DOCC [     3,    0,    1,    0 ]
    SOCC [     0,    0,    0,    1 ]

  @UHF Final Energy:   -75.42826624235690

   => Energetics <=

    Nuclear Repulsion Energy =              4.4661053246688098
    One-Electron Energy =                -112.8508254126096375
    Two-Electron Energy =                  32.9564538455839298
    Total Energy =                        -75.4282662423568979

  UHF NO Occupations:
  HONO-2 :    2 A1 1.9992943
  HONO-1 :    3 A1 1.9978812
  HONO-0 :    1 B2 1.0000000
  LUNO+0 :    4 A1 0.0021188
  LUNO+1 :    5 A1 0.0007057
  LUNO+2 :    2 B1 0.0006193
  LUNO+3 :    6 A1 0.0000013


Computation Completed


Properties will be evaluated at   0.000000,   0.000000,   0.000000 [a0]

Properties computed using the SCF density matrix

  Nuclear Dipole Moment: [e a0]
     X:     0.0000      Y:     0.0000      Z:     0.8357

  Electronic Dipole Moment: [e a0]
     X:     0.0000      Y:     0.0000      Z:    -0.1512

  Dipole Moment: [e a0]
     X:     0.0000      Y:     0.0000      Z:     0.6845     Total:     0.6845

  Dipole Moment: [D]
     X:     0.0000      Y:     0.0000      Z:     1.7398     Total:     1.7398


*** tstop() called on c4-20.compute.lan at Thu Feb 25 11:56:34 2021
Module time:
	user time   =      30.38 seconds =       0.51 minutes
	system time =       2.34 seconds =       0.04 minutes
	total time  =         33 seconds =       0.55 minutes
Total time:
	user time   =      30.38 seconds =       0.51 minutes
	system time =       2.34 seconds =       0.04 minutes
	total time  =         33 seconds =       0.55 minutes
 MINTS: Wrapper to libmints.
   by Justin Turney

   Calculation information:
      Number of threads:                 1
      Number of atoms:                   2
      Number of AO shells:              47
      Number of SO shells:              47
      Number of primitives:             71
      Number of atomic orbitals:       287
      Number of basis functions:       207

      Number of irreps:                  4
      Integral cutoff                 0.00e+00
      Number of functions per irrep: [  77   30   50   50 ]

 OEINTS: Overlap, kinetic, potential, dipole, and quadrupole integrals
         stored in file 35.

      Computing two-electron integrals...done
      Computed 53502122 non-zero two-electron integrals.
        Stored in file 33.


*** tstart() called on c4-20.compute.lan
*** at Thu Feb 25 11:56:46 2021


	Wfn Parameters:
	--------------------
	Wavefunction         = CCSD_T
	Number of irreps     = 4
	Number of MOs        = 207
	Number of active MOs = 207
	AO-Basis             = NONE
	Semicanonical        = false
	Reference            = UHF
	Print Level          = 1

	IRREP	# MOs	# FZDC	# DOCC	# SOCC	# VIRT	# FZVR
	-----	-----	------	------	------	------	------
	 A1	   77	    0	    3	    0	    74	    0
	 A2	   30	    0	    0	    0	    30	    0
	 B1	   50	    0	    1	    0	    49	    0
	 B2	   50	    0	    0	    1	    49	    0
	Transforming integrals...
	IWL integrals will be deleted.
	(OO|OO)...
	Presorting SO-basis two-electron integrals.
	Sorting File: SO Ints (nn|nn) nbuckets = 1
	Transforming the one-electron integrals and constructing Fock matrices
	Starting AA/AB first half-transformation.
	Sorting AA/AB half-transformed integrals.
	Starting BB first half-transformation.
	Sorting BB half-transformed integrals.
	First half integral transformation complete.
	Starting AA second half-transformation.
	Starting AB second half-transformation.
	Starting BB second half-transformation.
	Two-electron integral transformation complete.
	(OO|OV)...
	Starting AA second half-transformation.
	Starting AB second half-transformation.
	Starting BB second half-transformation.
	Two-electron integral transformation complete.
	(OO|VV)...
	Starting AA second half-transformation.
	Starting AB second half-transformation.
	Starting BB second half-transformation.
	Two-electron integral transformation complete.
	(OV|OO)...
	Starting AA/AB first half-transformation.
	Sorting AA/AB half-transformed integrals.
	Starting BB first half-transformation.
	Sorting BB half-transformed integrals.
	First half integral transformation complete.
	Starting AA second half-transformation.
	Starting AB second half-transformation.
	Starting BB second half-transformation.
	Two-electron integral transformation complete.
	(OV|OV)...
	Starting AA second half-transformation.
	Starting AB second half-transformation.
	Starting BB second half-transformation.
	Two-electron integral transformation complete.
	(OV|VV)...
	Starting AA second half-transformation.
	Starting AB second half-transformation.
	Starting BB second half-transformation.
	Two-electron integral transformation complete.
	(VV|OO)...
	Starting AA/AB first half-transformation.
	Sorting AA/AB half-transformed integrals.
	Starting BB first half-transformation.
	Sorting BB half-transformed integrals.
	First half integral transformation complete.
	Starting AA second half-transformation.
	Starting AB second half-transformation.
	Starting BB second half-transformation.
	Two-electron integral transformation complete.
	(VV|OV)...
	Starting AA second half-transformation.
	Starting AB second half-transformation.
	Starting BB second half-transformation.
	Two-electron integral transformation complete.
	(VV|VV)...
	Starting AA second half-transformation.
	Starting AB second half-transformation.
	Starting BB second half-transformation.
	Two-electron integral transformation complete.
	Frozen core energy     =      0.00000000000000

	Size of irrep 0 of <AB|CD> integrals:     30.118 (MW) /    240.945 (MB)
	Size of irrep 1 of <AB|CD> integrals:     21.354 (MW) /    170.829 (MB)
	Size of irrep 2 of <AB|CD> integrals:     25.969 (MW) /    207.754 (MB)
	Size of irrep 3 of <AB|CD> integrals:     25.969 (MW) /    207.754 (MB)
	Total:                                   103.410 (MW) /    827.282 (MB)

	Size of irrep 0 of <ab|cd> integrals:     30.658 (MW) /    245.267 (MB)
	Size of irrep 1 of <ab|cd> integrals:     21.809 (MW) /    174.471 (MB)
	Size of irrep 2 of <ab|cd> integrals:     26.276 (MW) /    210.207 (MB)
	Size of irrep 3 of <ab|cd> integrals:     26.729 (MW) /    213.831 (MB)
	Total:                                   105.472 (MW) /    843.776 (MB)

	Size of irrep 0 of <Ab|Cd> integrals:    126.046 (MW) /   1008.364 (MB)
	Size of irrep 1 of <Ab|Cd> integrals:     86.323 (MW) /    690.581 (MB)
	Size of irrep 2 of <Ab|Cd> integrals:    104.489 (MW) /    835.914 (MB)
	Size of irrep 3 of <Ab|Cd> integrals:    105.391 (MW) /    843.126 (MB)
	Total:                                   422.248 (MW) /   3377.986 (MB)

	Size of irrep 0 of <IA|BC> integrals:      3.577 (MW) /     28.616 (MB)
	Size of irrep 1 of <IA|BC> integrals:      1.737 (MW) /     13.900 (MB)
	Size of irrep 2 of <IA|BC> integrals:      2.558 (MW) /     20.466 (MB)
	Size of irrep 3 of <IA|BC> integrals:      2.558 (MW) /     20.466 (MB)
	Total:                                    10.431 (MW) /     83.447 (MB)

	Size of irrep 0 of <ia|bc> integrals:      3.056 (MW) /     24.449 (MB)
	Size of irrep 1 of <ia|bc> integrals:      1.308 (MW) /     10.461 (MB)
	Size of irrep 2 of <ia|bc> integrals:      2.266 (MW) /     18.126 (MB)
	Size of irrep 3 of <ia|bc> integrals:      1.861 (MW) /     14.890 (MB)
	Total:                                     8.491 (MW) /     67.924 (MB)

	Size of irrep 0 of <Ia|Bc> integrals:      3.604 (MW) /     28.831 (MB)
	Size of irrep 1 of <Ia|Bc> integrals:      1.756 (MW) /     14.048 (MB)
	Size of irrep 2 of <Ia|Bc> integrals:      2.566 (MW) /     20.526 (MB)
	Size of irrep 3 of <Ia|Bc> integrals:      2.608 (MW) /     20.861 (MB)
	Total:                                    10.533 (MW) /     84.265 (MB)

	Size of irrep 0 of <iA|bC> integrals:      3.043 (MW) /     24.340 (MB)
	Size of irrep 1 of <iA|bC> integrals:      1.291 (MW) /     10.332 (MB)
	Size of irrep 2 of <iA|bC> integrals:      2.259 (MW) /     18.072 (MB)
	Size of irrep 3 of <iA|bC> integrals:      1.817 (MW) /     14.537 (MB)
	Total:                                     8.410 (MW) /     67.281 (MB)

	Size of irrep 0 of tIjAb amplitudes:       0.112 (MW) /      0.898 (MB)
	Size of irrep 1 of tIjAb amplitudes:       0.009 (MW) /      0.074 (MB)
	Size of irrep 2 of tIjAb amplitudes:       0.061 (MW) /      0.491 (MB)
	Size of irrep 3 of tIjAb amplitudes:       0.031 (MW) /      0.246 (MB)
	Total:                                     0.214 (MW) /      1.710 (MB)

	Nuclear Rep. energy          =      4.46610532466881
	SCF energy                   =    -75.42826624235690
	One-electron energy          =   -112.85082540090596
	Two-electron (AA) energy     =      7.76344330463628
	Two-electron (BB) energy     =      4.65014254451931
	Two-electron (AB) energy     =     20.54286798472465
	Two-electron energy          =     32.95645383388025
	Reference energy             =    -75.42826624235690

*** tstop() called on c4-20.compute.lan at Thu Feb 25 11:58:12 2021
Module time:
	user time   =      43.38 seconds =       0.72 minutes
	system time =      42.05 seconds =       0.70 minutes
	total time  =         86 seconds =       1.43 minutes
Total time:
	user time   =      85.79 seconds =       1.43 minutes
	system time =      45.05 seconds =       0.75 minutes
	total time  =        131 seconds =       2.18 minutes
            **************************
            *                        *
            *        CCENERGY        *
            *                        *
            **************************

    Nuclear Rep. energy (wfn)     =    4.466105324668810
    SCF energy          (wfn)     =  -75.428266242356898
    Reference energy    (file100) =  -75.428266242356898

    Input parameters:
    -----------------
    Wave function   =     CCSD_T
    Reference wfn   =     UHF
    Brueckner       =     No
    Memory (Mbytes) =     32000.0
    Maxiter         =     50
    R_Convergence   =     1.0e-10
    E_Convergence   =     1.0e-10
    Restart         =     Yes
    DIIS            =     Yes
    AO Basis        =     NONE
    ABCD            =     NEW
    Cache Level     =     2
    Cache Type      =     LRU
    Print Level     =     1
    Num. of threads =     1
    # Amps to Print =     10
    Print MP2 Amps? =     No
    Analyze T2 Amps =     No
    Print Pair Ener =     No
    Local CC        =     No
    SCS-MP2         =     False
    SCSN-MP2        =     False
    SCS-CCSD        =     False

MP2 correlation energy -0.2620229846084614
                Solving CC Amplitude Equations
                ------------------------------
  Iter             Energy              RMS        T1Diag      D1Diag    New D1Diag    D2Diag
  ----     ---------------------    ---------   ----------  ----------  ----------   --------
     0        -0.262022984608461    0.000e+00    0.000000    0.000000    0.000000    0.000000
     1        -0.267577345866370    3.509e-02    0.008193    0.000000    0.000000    0.000000
     2        -0.271747891315926    1.145e-02    0.009301    0.000000    0.000000    0.000000
     3        -0.272626896674946    5.584e-03    0.010794    0.000000    0.000000    0.000000
     4        -0.272527648435003    1.899e-03    0.011076    0.000000    0.000000    0.000000
     5        -0.272537788785633    8.858e-04    0.011162    0.000000    0.000000    0.000000
     6        -0.272556722151820    3.130e-04    0.011152    0.000000    0.000000    0.000000
     7        -0.272556691417569    1.031e-04    0.011139    0.000000    0.000000    0.000000
     8        -0.272556727969617    3.669e-05    0.011136    0.000000    0.000000    0.000000
     9        -0.272556962884165    1.179e-05    0.011136    0.000000    0.000000    0.000000
    10        -0.272556745654031    4.701e-06    0.011136    0.000000    0.000000    0.000000
    11        -0.272556838905827    1.900e-06    0.011136    0.000000    0.000000    0.000000
    12        -0.272556836280222    6.039e-07    0.011136    0.000000    0.000000    0.000000
    13        -0.272556847017906    2.285e-07    0.011136    0.000000    0.000000    0.000000
    14        -0.272556852312149    8.982e-08    0.011136    0.000000    0.000000    0.000000
    15        -0.272556852322935    3.666e-08    0.011136    0.000000    0.000000    0.000000
    16        -0.272556852468759    1.629e-08    0.011136    0.000000    0.000000    0.000000
    17        -0.272556852478623    7.542e-09    0.011136    0.000000    0.000000    0.000000
    18        -0.272556852445498    3.280e-09    0.011136    0.000000    0.000000    0.000000
    19        -0.272556852514972    1.376e-09    0.011136    0.000000    0.000000    0.000000
    20        -0.272556852546529    5.344e-10    0.011136    0.000000    0.000000    0.000000
    21        -0.272556852548375    2.254e-10    0.011136    0.000000    0.000000    0.000000
    22        -0.272556852549595    9.725e-11    0.011136    0.000000    0.000000    0.000000

    Iterations converged.


    Largest TIA Amplitudes:
              4 155        -0.0102961439
              4 153        -0.0097345321
              3 104        -0.0093059854
              3 106        -0.0089401344
              4 154        -0.0057758180
              3 105        -0.0057172786
              2  20        -0.0036757732
              4 158        -0.0032417115
              3 110        -0.0031832926
              1   2         0.0031424359

    Largest Tia Amplitudes:
              3 104        -0.0069199370
              3 106        -0.0057354533
              1  10        -0.0052103022
              3 105        -0.0050711426
              2  18        -0.0045733952
              1   6        -0.0043114235
              2  20        -0.0042805376
              1  18        -0.0041787085
              1   4         0.0041384969
              3 115         0.0039103564

    Largest TIJAB Amplitudes:
      4   3 155 106        -0.0095418521
      4   2 155  10         0.0090679926
      3   2 106  10         0.0090394099
      4   2 155   4        -0.0081641015
      3   2 106   4        -0.0081216497
      3   2 110   6         0.0076361768
      4   2 164  10         0.0073669831
      3   2 115  10         0.0072572986
      4   3 164 115        -0.0071659354
      4   3  77  15        -0.0070741783

    Largest Tijab Amplitudes:
      3   2 106  10         0.0089867629
      3   2 106   4        -0.0079159318
      3   2 110   6         0.0076471268
      3   2 110  10         0.0072075726
      3   2 115  10         0.0070603680
      3   2 110  11        -0.0068379467
      3   2 106   6         0.0058176696
      3   2 114  11         0.0055466345
      3   1 153  77         0.0053128482
      3   2 110   4        -0.0052662117

    Largest TIjAb Amplitudes:
      2   2  10  10        -0.0200091006
      2   2   4  10         0.0163030212
      2   2   6   6        -0.0162541683
      2   2  10   4         0.0156990815
      3   3 106 106        -0.0154781239
      2   2   4   4        -0.0141167439
      3   3 115 115        -0.0140280718
      2   2   6  10        -0.0138896685
      2   2  10   6        -0.0137430742
      2   2  11  11        -0.0134308736

    SCF energy       (wfn)                    =  -75.428266242356898
    Reference energy (file100)                =  -75.428266242356898

    Opposite-spin MP2 correlation energy      =   -0.205648006350830
    Same-spin MP2 correlation energy          =   -0.056374978257631
    MP2 correlation energy                    =   -0.262022984608461
      * MP2 total energy                      =  -75.690289226965362

    Opposite-spin CCSD correlation energy     =   -0.219057077147989
    Same-spin CCSD correlation energy         =   -0.053499775401604
    CCSD correlation energy                   =   -0.272556852549595
      * CCSD total energy                     =  -75.700823094906497

            **************************
            *                        *
            *        CCTRIPLES       *
            *                        *
            **************************


    Wave function   =    CCSD_T
    Reference wfn   =      UHF

    Nuclear Rep. energy (wfn)                =    4.466105324668810
    SCF energy          (wfn)                =  -75.428266242356898
    Reference energy    (file100)            =  -75.428266242356898
    CCSD energy         (file100)            =   -0.272556852549595
    Total CCSD energy   (file100)            =  -75.700823094906497

    Number of ijk index combinations:
    Spin Case AAA:                                 125
    Spin Case BBB:                                  64
    Spin Case AAB:                                 100
    Spin Case ABB:                                  80

    Number of abc index combinations:
    Spin Case AAA:                             8242408
    Spin Case BBB:                             8365427
    Spin Case AAB:                             8283212
    Spin Case ABB:                             8324218

    Computing (T) contributions to CC density...
