
    -----------------------------------------------------------------------
          Psi4: An Open-Source Ab Initio Electronic Structure Package
                               Psi4 1.3.2 release

                         Git: Rev {HEAD} ecbda83 


    R. M. Parrish, L. A. Burns, D. G. A. Smith, A. C. Simmonett,
    A. E. DePrince III, E. G. Hohenstein, U. Bozkaya, A. Yu. Sokolov,
    R. Di Remigio, R. M. Richard, J. F. Gonthier, A. M. James,
    H. R. McAlexander, A. Kumar, M. Saitow, X. Wang, B. P. Pritchard,
    P. Verma, H. F. Schaefer III, K. Patkowski, R. A. King, E. F. Valeev,
    F. A. Evangelista, J. M. Turney, T. D. Crawford, and C. D. Sherrill,
    J. Chem. Theory Comput. 13(7) pp 3185--3197 (2017).
    (doi: 10.1021/acs.jctc.7b00174)


                         Additional Contributions by
    P. Kraus, H. Kruse, M. H. Lechner, M. C. Schieber, R. A. Shaw,
    A. Alenaizan, R. Galvelis, Z. L. Glick, S. Lehtola, and J. P. Misiewicz

    -----------------------------------------------------------------------


    Psi4 started on: Monday, 08 March 2021 05:48PM

    Process ID: 100438
    Host:       d1-15.compute.lan
    PSIDATADIR: /apps/gb/PSI4/1.3.2/share/psi4
    Memory:     500.0 MiB
    Threads:    12
    
  ==> Input File <==

--------------------------------------------------------------------------
memory 4 GB

molecule  {
0 3
O    0.000000000000    0.000000000000    1.270171727222
H    0.000000000000   -0.759829662100    1.857794414004
H   -0.000000000000    0.759829662100    1.857794414004
O    0.000000000000    0.000000000000   -1.504287602137
}
set {
basis aug-cc-pvtz
reference uhf
e_convergence 10
scf_type pk
freeze_core true
}

set ccenergy {
e_convergence 10
r_convergence 10
}

e = energy('ccsd(t)')

print_out('Stephenergy {}'.format(e))

--------------------------------------------------------------------------

  Memory set to   3.725 GiB by Python driver.

*** tstart() called on d1-15.compute.lan
*** at Mon Mar  8 17:48:18 2021

   => Loading Basis Set <=

    Name: AUG-CC-PVTZ
    Role: ORBITAL
    Keyword: BASIS
    atoms 1, 4 entry O          line   327 file /apps/gb/PSI4/1.3.2/share/psi4/basis/aug-cc-pvtz.gbs 
    atoms 2-3  entry H          line    36 file /apps/gb/PSI4/1.3.2/share/psi4/basis/aug-cc-pvtz.gbs 


         ---------------------------------------------------------
                                   SCF
               by Justin Turney, Rob Parrish, Andy Simmonett
                          and Daniel G. A. Smith
                              UHF Reference
                       12 Threads,   3814 MiB Core
         ---------------------------------------------------------

  ==> Geometry <==

    Molecular point group: c2v
    Full point group: C2v

    Geometry (in Angstrom), charge = 0, multiplicity = 3:

       Center              X                  Y                   Z               Mass       
    ------------   -----------------  -----------------  -----------------  -----------------
         O            0.000000000000     0.000000000000     1.270171727222    15.994914619570
         H            0.000000000000    -0.759829662100     1.857794414004     1.007825032230
         H           -0.000000000000     0.759829662100     1.857794414004     1.007825032230
         O            0.000000000000     0.000000000000    -1.504287602137    15.994914619570

  Running in c2v symmetry.

  Rotational constants: A =     14.48601  B =      0.24447  C =      0.24041 [cm^-1]
  Rotational constants: A = 434279.74649  B =   7328.94525  C =   7207.31395 [MHz]
  Nuclear repulsion =   23.826068619689426

  Charge       = 0
  Multiplicity = 3
  Electrons    = 18
  Nalpha       = 10
  Nbeta        = 8

  ==> Algorithm <==

  SCF Algorithm Type is PK.
  DIIS enabled.
  MOM disabled.
  Fractional occupation disabled.
  Guess Type is SAD.
  Energy threshold   = 1.00e-10
  Density threshold  = 1.00e-08
  Integral threshold = 0.00e+00

  ==> Primary Basis <==

  Basis Set: AUG-CC-PVTZ
    Blend: AUG-CC-PVTZ
    Number of shells: 46
    Number of basis function: 138
    Number of Cartesian functions: 160
    Spherical Harmonics?: true
    Max angular momentum: 3

  ==> Pre-Iterations <==

   -------------------------------------------------------
    Irrep   Nso     Nmo     Nalpha   Nbeta   Ndocc  Nsocc
   -------------------------------------------------------
     A1        54      54       0       0       0       0
     A2        17      17       0       0       0       0
     B1        29      29       0       0       0       0
     B2        38      38       0       0       0       0
   -------------------------------------------------------
    Total     138     138      10       8       8       2
   -------------------------------------------------------

  ==> Integral Setup <==

  Using in-core PK algorithm.
   Calculation information:
      Number of atoms:                   4
      Number of AO shells:              46
      Number of primitives:             82
      Number of atomic orbitals:       160
      Number of basis functions:       138

      Integral cutoff                 1.00e-12
      Number of threads:                12

  Performing in-core PK
  Using 91996872 doubles for integral storage.
  We computed 909604 shell quartets total.
  Whereas there are 584821 unique shell quartets.
    55.54 percent of shell quartets recomputed by reordering.

  ==> DiskJK: Disk-Based J/K Matrices <==

    J tasked:                  Yes
    K tasked:                  Yes
    wK tasked:                  No
    Memory [MiB]:             2861
    Schwarz Cutoff:          1E-12

    OpenMP threads:             12

  Minimum eigenvalue in the overlap matrix is 3.2235317889E-04.
  Using Symmetric Orthogonalization.

  SCF Guess: Superposition of Atomic Densities via on-the-fly atomic UHF.

  ==> Iterations <==

                        Total Energy        Delta E     RMS |[F,P]|

   @UHF iter SAD:  -149.38248630126463   -1.49382e+02   0.00000e+00 
   @UHF iter   1:  -150.77005406283007   -1.38757e+00   6.69902e-03 DIIS
   @UHF iter   2:  -150.84083142848175   -7.07774e-02   4.25386e-03 DIIS
   @UHF iter   3:  -150.87207692300944   -3.12455e-02   5.58565e-04 DIIS
   @UHF iter   4:  -150.87344938554619   -1.37246e-03   1.70927e-04 DIIS
   @UHF iter   5:  -150.87358318383167   -1.33798e-04   6.97959e-05 DIIS
   @UHF iter   6:  -150.87361628154639   -3.30977e-05   2.08523e-05 DIIS
   @UHF iter   7:  -150.87361938427401   -3.10273e-06   5.35306e-06 DIIS
   @UHF iter   8:  -150.87361960836790   -2.24094e-07   1.48885e-06 DIIS
   @UHF iter   9:  -150.87361962522914   -1.68612e-08   3.69189e-07 DIIS
   @UHF iter  10:  -150.87361962632679   -1.09765e-09   1.77062e-07 DIIS
   @UHF iter  11:  -150.87361962666731   -3.40521e-10   6.89049e-08 DIIS
   @UHF iter  12:  -150.87361962672028   -5.29781e-11   1.48237e-08 DIIS
   @UHF iter  13:  -150.87361962672230   -2.01794e-12   4.44394e-09 DIIS
  Energy and wave function converged.


  ==> Post-Iterations <==

   @Spin Contamination Metric:   9.531024707E-03
   @S^2 Expected:                2.000000000E+00
   @S^2 Observed:                2.009531025E+00
   @S   Expected:                1.000000000E+00
   @S   Observed:                1.000000000E+00

    Orbital Energies [Eh]
    ---------------------

    Alpha Occupied:                                                       

       1A1   -20.684532     2A1   -20.570940     3A1    -1.393955  
       4A1    -1.355709     1B2    -0.719624     5A1    -0.688204  
       1B1    -0.685255     6A1    -0.586334     2B2    -0.586266  
       2B1    -0.514011  

    Alpha Virtual:                                                        

       7A1     0.029580     3B2     0.047668     8A1     0.118576  
       3B1     0.153995     9A1     0.159537     4B2     0.180297  
       5B2     0.186904     4B1     0.192715    10A1     0.197985  
       1A2     0.263657     6B2     0.264193    11A1     0.264767  
      12A1     0.314405     5B1     0.326953    13A1     0.376081  
       7B2     0.380320    14A1     0.450135     8B2     0.464537  
       9B2     0.600113     6B1     0.643486    15A1     0.647357  
       2A2     0.658169    16A1     0.666624    17A1     0.696148  
       3A2     0.721530    10B2     0.722622     7B1     0.767637  
      18A1     0.792976    19A1     0.818674     8B1     0.837762  
      20A1     0.861075     9B1     0.901269    11B2     0.918733  
       4A2     0.924788    12B2     0.946273    13B2     0.979803  
      21A1     0.990237    10B1     1.012662    22A1     1.046694  
      14B2     1.051642    11B1     1.122318     5A2     1.176811  
      23A1     1.191805    15B2     1.198765    16B2     1.326820  
      24A1     1.336024    25A1     1.444003     6A2     1.507679  
      12B1     1.595030    26A1     1.667030    27A1     1.811631  
      17B2     1.821532    18B2     1.978468    28A1     2.040781  
      13B1     2.047790    19B2     2.054055     7A2     2.056768  
      14B1     2.058928    29A1     2.079332    30A1     2.114889  
       8A2     2.118689    20B2     2.135333    31A1     2.141141  
      15B1     2.145217    32A1     2.252056    21B2     2.267306  
      16B1     2.303328     9A2     2.312129    17B1     2.434149  
      33A1     2.470144    22B2     2.481476    34A1     2.486517  
      35A1     2.696065    18B1     2.715920    23B2     2.721023  
      36A1     2.839888    24B2     2.863397    10A2     2.880632  
      25B2     3.692215    37A1     3.755918    11A2     4.013404  
      19B1     4.080615    20B1     4.099409    38A1     4.141891  
      26B2     4.183417    27B2     4.281774    21B1     4.291648  
      39A1     4.351493    12A2     4.382228    40A1     4.428678  
      22B1     4.451795    28B2     4.515103    41A1     4.789019  
      29B2     4.841311    30B2     5.141678    13A2     5.147402  
      31B2     5.251583    42A1     5.343759    23B1     5.518405  
      43A1     5.687650    44A1     6.198413    24B1     6.388986  
      45A1     6.408948    14A2     6.410140    32B2     6.423583  
      25B1     6.435502    33B2     6.485847    46A1     6.536061  
      34B2     6.581887    26B1     6.716380    27B1     6.902306  
      47A1     6.905653    15A2     6.924505    48A1     6.939584  
      35B2     6.985601    49A1     7.046426    28B1     7.136338  
      29B1     7.278808    16A2     7.307697    36B2     7.313992  
      17A2     7.353071    50A1     7.437136    51A1     7.545567  
      52A1     7.912642    37B2     7.917531    38B2     8.808696  
      53A1     8.860684    54A1    15.804234  

    Beta Occupied:                                                        

       1A1   -20.605667     2A1   -20.570477     3A1    -1.355023  
       4A1    -1.051147     1B2    -0.719295     5A1    -0.588057  
       1B1    -0.513350     2B2    -0.495685  

    Beta Virtual:                                                         

       6A1     0.029421     3B2     0.047749     2B1     0.086494  
       7A1     0.091923     8A1     0.140938     9A1     0.167055  
       3B1     0.170546     4B2     0.180915     5B2     0.190505  
      10A1     0.225547     4B1     0.253276     1A2     0.263659  
       6B2     0.264638    11A1     0.288396    12A1     0.316834  
       5B1     0.328252     7B2     0.380493    13A1     0.386380  
      14A1     0.451202     8B2     0.464733     9B2     0.601737  
      15A1     0.660447     6B1     0.667279     2A2     0.672594  
      16A1     0.673701    17A1     0.713383     3A2     0.721990  
      10B2     0.734830     7B1     0.778926    18A1     0.806315  
       8B1     0.846961    19A1     0.850912     4A2     0.925177  
      20A1     0.927942    11B2     0.936452    12B2     0.953364  
      13B2     0.983564     9B1     0.986663    21A1     0.997440  
      14B2     1.052736    22A1     1.052862    10B1     1.060417  
      11B1     1.138349     5A2     1.177006    23A1     1.193298  
      15B2     1.201470    16B2     1.329226    24A1     1.392626  
      25A1     1.483448     6A2     1.508097    12B1     1.596999  
      26A1     1.697105    27A1     1.816662    17B2     1.821863  
      18B2     1.979893    28A1     2.070367    13B1     2.070809  
      19B2     2.071474     7A2     2.081408    29A1     2.099760  
      14B1     2.100390    30A1     2.156130    20B2     2.181061  
       8A2     2.201912    31A1     2.207746    15B1     2.258221  
      32A1     2.308831     9A2     2.312259    21B2     2.319077  
      16B1     2.319136    17B1     2.442029    33A1     2.483332  
      22B2     2.484331    34A1     2.514905    35A1     2.703582  
      18B1     2.717621    23B2     2.721929    36A1     2.851911  
      24B2     2.863572    10A2     2.880666    25B2     3.693092  
      37A1     3.756055    11A2     4.013432    19B1     4.083055  
      38A1     4.174469    26B2     4.219074    20B1     4.260153  
      27B2     4.292591    21B1     4.295890    12A2     4.382334  
      39A1     4.427319    22B1     4.456920    40A1     4.468103  
      28B2     4.515182    41A1     4.799797    29B2     4.841465  
      30B2     5.141861    13A2     5.147477    31B2     5.251990  
      42A1     5.344398    23B1     5.518515    43A1     5.692185  
      44A1     6.200071    24B1     6.485605    14A2     6.486970  
      32B2     6.487749    45A1     6.493126    25B1     6.499284  
      33B2     6.521580    46A1     6.607751    34B2     6.609694  
      26B1     6.723231    47A1     6.954980    15A2     7.038058  
      48A1     7.041945    27B1     7.084898    35B2     7.097466  
      28B1     7.136729    49A1     7.173858    29B1     7.282917  
      16A2     7.307971    36B2     7.314176    17A2     7.353474  
      50A1     7.439914    51A1     7.546616    52A1     7.913199  
      37B2     7.917878    38B2     8.809067    53A1     8.940108  
      54A1    15.804552  

    Final Occupation by Irrep:
             A1    A2    B1    B2 
    DOCC [     5,    0,    1,    2 ]
    SOCC [     1,    0,    1,    0 ]

  @UHF Final Energy:  -150.87361962672230

   => Energetics <=

    Nuclear Repulsion Energy =             23.8260686196894262
    One-Electron Energy =                -255.7158443097462168
    Two-Electron Energy =                  81.0161560633344777
    Total Energy =                       -150.8736196267223022

  UHF NO Occupations:
  HONO-2 :    5 A1 1.9970493
  HONO-1 :    6 A1 1.0000000
  HONO-0 :    2 B1 1.0000000
  LUNO+0 :    7 A1 0.0029507
  LUNO+1 :    3 B2 0.0017951
  LUNO+2 :    8 A1 0.0000217
  LUNO+3 :    9 A1 0.0000024


Computation Completed


Properties will be evaluated at   0.000000,   0.000000,   0.000000 [a0]

Properties computed using the SCF density matrix

  Nuclear Dipole Moment: [e a0]
     X:     0.0000      Y:     0.0000      Z:     3.4821

  Electronic Dipole Moment: [e a0]
     X:     0.0000      Y:     0.0000      Z:    -2.6471

  Dipole Moment: [e a0]
     X:     0.0000      Y:     0.0000      Z:     0.8350     Total:     0.8350

  Dipole Moment: [D]
     X:     0.0000      Y:     0.0000      Z:     2.1223     Total:     2.1223


*** tstop() called on d1-15.compute.lan at Mon Mar  8 17:48:24 2021
Module time:
	user time   =      43.64 seconds =       0.73 minutes
	system time =       2.40 seconds =       0.04 minutes
	total time  =          6 seconds =       0.10 minutes
Total time:
	user time   =      43.64 seconds =       0.73 minutes
	system time =       2.40 seconds =       0.04 minutes
	total time  =          6 seconds =       0.10 minutes
 MINTS: Wrapper to libmints.
   by Justin Turney

   Calculation information:
      Number of threads:                12
      Number of atoms:                   4
      Number of AO shells:              46
      Number of SO shells:              37
      Number of primitives:             82
      Number of atomic orbitals:       160
      Number of basis functions:       138

      Number of irreps:                  4
      Integral cutoff                 0.00e+00
      Number of functions per irrep: [  54   17   29   38 ]

 OEINTS: Overlap, kinetic, potential, dipole, and quadrupole integrals
         stored in file 35.

      Computing two-electron integrals...done
      Computed 11333618 non-zero two-electron integrals.
        Stored in file 33.


*** tstart() called on d1-15.compute.lan
*** at Mon Mar  8 17:48:27 2021


	Wfn Parameters:
	--------------------
	Wavefunction         = CCSD_T
	Number of irreps     = 4
	Number of MOs        = 138
	Number of active MOs = 136
	AO-Basis             = NONE
	Semicanonical        = false
	Reference            = UHF
	Print Level          = 1

	IRREP	# MOs	# FZDC	# DOCC	# SOCC	# VIRT	# FZVR
	-----	-----	------	------	------	------	------
	 A1	   54	    2	    3	    1	    48	    0
	 A2	   17	    0	    0	    0	    17	    0
	 B1	   29	    0	    1	    1	    27	    0
	 B2	   38	    0	    2	    0	    36	    0
	Transforming integrals...
	IWL integrals will be deleted.
	(OO|OO)...
	Presorting SO-basis two-electron integrals.
	Sorting File: SO Ints (nn|nn) nbuckets = 1
	Transforming the one-electron integrals and constructing Fock matrices
	Starting AA/AB first half-transformation.
	Sorting AA/AB half-transformed integrals.
	Starting BB first half-transformation.
	Sorting BB half-transformed integrals.
	First half integral transformation complete.
	Starting AA second half-transformation.
	Starting AB second half-transformation.
	Starting BB second half-transformation.
	Two-electron integral transformation complete.
	(OO|OV)...
	Starting AA second half-transformation.
	Starting AB second half-transformation.
	Starting BB second half-transformation.
	Two-electron integral transformation complete.
	(OO|VV)...
	Starting AA second half-transformation.
	Starting AB second half-transformation.
	Starting BB second half-transformation.
	Two-electron integral transformation complete.
	(OV|OO)...
	Starting AA/AB first half-transformation.
	Sorting AA/AB half-transformed integrals.
	Starting BB first half-transformation.
	Sorting BB half-transformed integrals.
	First half integral transformation complete.
	Starting AA second half-transformation.
	Starting AB second half-transformation.
	Starting BB second half-transformation.
	Two-electron integral transformation complete.
	(OV|OV)...
	Starting AA second half-transformation.
	Starting AB second half-transformation.
	Starting BB second half-transformation.
	Two-electron integral transformation complete.
	(OV|VV)...
	Starting AA second half-transformation.
	Starting AB second half-transformation.
	Starting BB second half-transformation.
	Two-electron integral transformation complete.
	(VV|OO)...
	Starting AA/AB first half-transformation.
	Sorting AA/AB half-transformed integrals.
	Starting BB first half-transformation.
	Sorting BB half-transformed integrals.
	First half integral transformation complete.
	Starting AA second half-transformation.
	Starting AB second half-transformation.
	Starting BB second half-transformation.
	Two-electron integral transformation complete.
	(VV|OV)...
	Starting AA second half-transformation.
	Starting AB second half-transformation.
	Starting BB second half-transformation.
	Two-electron integral transformation complete.
	(VV|VV)...
	Starting AA second half-transformation.
	Starting AB second half-transformation.
	Starting BB second half-transformation.
	Two-electron integral transformation complete.
	Frozen core energy     =   -126.36900444886697

	Size of irrep 0 of <AB|CD> integrals:      5.040 (MW) /     40.320 (MB)
	Size of irrep 1 of <AB|CD> integrals:      3.197 (MW) /     25.576 (MB)
	Size of irrep 2 of <AB|CD> integrals:      3.640 (MW) /     29.124 (MB)
	Size of irrep 3 of <AB|CD> integrals:      4.783 (MW) /     38.264 (MB)
	Total:                                    16.660 (MW) /    133.283 (MB)

	Size of irrep 0 of <ab|cd> integrals:      5.382 (MW) /     43.059 (MB)
	Size of irrep 1 of <ab|cd> integrals:      3.389 (MW) /     27.114 (MB)
	Size of irrep 2 of <ab|cd> integrals:      3.936 (MW) /     31.490 (MB)
	Size of irrep 3 of <ab|cd> integrals:      5.018 (MW) /     40.141 (MB)
	Total:                                    17.726 (MW) /    141.804 (MB)

	Size of irrep 0 of <Ab|Cd> integrals:     22.024 (MW) /    176.194 (MB)
	Size of irrep 1 of <Ab|Cd> integrals:     13.170 (MW) /    105.357 (MB)
	Size of irrep 2 of <Ab|Cd> integrals:     15.140 (MW) /    121.119 (MB)
	Size of irrep 3 of <Ab|Cd> integrals:     19.598 (MW) /    156.787 (MB)
	Total:                                    69.932 (MW) /    559.457 (MB)

	Size of irrep 0 of <IA|BC> integrals:      1.469 (MW) /     11.748 (MB)
	Size of irrep 1 of <IA|BC> integrals:      0.694 (MW) /      5.550 (MB)
	Size of irrep 2 of <IA|BC> integrals:      0.908 (MW) /      7.266 (MB)
	Size of irrep 3 of <IA|BC> integrals:      1.198 (MW) /      9.588 (MB)
	Total:                                     4.269 (MW) /     34.152 (MB)

	Size of irrep 0 of <ia|bc> integrals:      1.178 (MW) /      9.426 (MB)
	Size of irrep 1 of <ia|bc> integrals:      0.527 (MW) /      4.212 (MB)
	Size of irrep 2 of <ia|bc> integrals:      0.663 (MW) /      5.301 (MB)
	Size of irrep 3 of <ia|bc> integrals:      0.999 (MW) /      7.992 (MB)
	Total:                                     3.366 (MW) /     26.931 (MB)

	Size of irrep 0 of <Ia|Bc> integrals:      1.521 (MW) /     12.164 (MB)
	Size of irrep 1 of <Ia|Bc> integrals:      0.711 (MW) /      5.690 (MB)
	Size of irrep 2 of <Ia|Bc> integrals:      0.949 (MW) /      7.595 (MB)
	Size of irrep 3 of <Ia|Bc> integrals:      1.222 (MW) /      9.775 (MB)
	Total:                                     4.403 (MW) /     35.225 (MB)

	Size of irrep 0 of <iA|bC> integrals:      1.140 (MW) /      9.123 (MB)
	Size of irrep 1 of <iA|bC> integrals:      0.512 (MW) /      4.094 (MB)
	Size of irrep 2 of <iA|bC> integrals:      0.634 (MW) /      5.074 (MB)
	Size of irrep 3 of <iA|bC> integrals:      0.978 (MW) /      7.827 (MB)
	Total:                                     3.265 (MW) /     26.118 (MB)

	Size of irrep 0 of tIjAb amplitudes:       0.084 (MW) /      0.676 (MB)
	Size of irrep 1 of tIjAb amplitudes:       0.022 (MW) /      0.174 (MB)
	Size of irrep 2 of tIjAb amplitudes:       0.039 (MW) /      0.311 (MB)
	Size of irrep 3 of tIjAb amplitudes:       0.062 (MW) /      0.496 (MB)
	Total:                                     0.207 (MW) /      1.657 (MB)

	Nuclear Rep. energy          =     23.82606861968943
	SCF energy                   =   -150.87361962672230
	One-electron energy          =    -85.40945097025764
	Two-electron (AA) energy     =     10.36294899342943
	Two-electron (BB) energy     =      5.46687399230673
	Two-electron (AB) energy     =     21.24894418697568
	Two-electron energy          =     37.07876717271184
	Reference energy             =   -150.87361962672335

*** tstop() called on d1-15.compute.lan at Mon Mar  8 17:49:42 2021
Module time:
	user time   =     625.39 seconds =      10.42 minutes
	system time =      36.96 seconds =       0.62 minutes
	total time  =         75 seconds =       1.25 minutes
Total time:
	user time   =     674.57 seconds =      11.24 minutes
	system time =      39.92 seconds =       0.67 minutes
	total time  =         84 seconds =       1.40 minutes
            **************************
            *                        *
            *        CCENERGY        *
            *                        *
            **************************

    Nuclear Rep. energy (wfn)     =   23.826068619689426
    SCF energy          (wfn)     = -150.873619626722302
    Reference energy    (file100) = -150.873619626723354

    Input parameters:
    -----------------
    Wave function   =     CCSD_T
    Reference wfn   =     UHF
    Brueckner       =     No
    Memory (Mbytes) =     4000.0
    Maxiter         =     50
    R_Convergence   =     1.0e-10
    E_Convergence   =     1.0e-10
    Restart         =     Yes
    DIIS            =     Yes
    AO Basis        =     NONE
    ABCD            =     NEW
    Cache Level     =     2
    Cache Type      =     LRU
    Print Level     =     1
    Num. of threads =     12
    # Amps to Print =     10
    Print MP2 Amps? =     No
    Analyze T2 Amps =     No
    Print Pair Ener =     No
    Local CC        =     No
    SCS-MP2         =     False
    SCSN-MP2        =     False
    SCS-CCSD        =     False

MP2 correlation energy -0.4161761703057326
                Solving CC Amplitude Equations
                ------------------------------
  Iter             Energy              RMS        T1Diag      D1Diag    New D1Diag    D2Diag
  ----     ---------------------    ---------   ----------  ----------  ----------   --------
     0        -0.416176170305733    0.000e+00    0.000000    0.000000    0.000000    0.000000
     1        -0.426984620369089    5.691e-02    0.010566    0.000000    0.000000    0.000000
     2        -0.435070114900430    1.700e-02    0.011062    0.000000    0.000000    0.000000
     3        -0.437216839702808    8.760e-03    0.012980    0.000000    0.000000    0.000000
     4        -0.437090483403794    2.679e-03    0.013389    0.000000    0.000000    0.000000
     5        -0.437081012681815    1.394e-03    0.013581    0.000000    0.000000    0.000000
     6        -0.437110128248135    5.291e-04    0.013608    0.000000    0.000000    0.000000
     7        -0.437113103320729    2.144e-04    0.013602    0.000000    0.000000    0.000000
     8        -0.437114033546923    6.669e-05    0.013597    0.000000    0.000000    0.000000
     9        -0.437114719957556    2.382e-05    0.013596    0.000000    0.000000    0.000000
    10        -0.437113820633258    9.211e-06    0.013596    0.000000    0.000000    0.000000
    11        -0.437113985401904    3.995e-06    0.013596    0.000000    0.000000    0.000000
    12        -0.437113945766065    1.443e-06    0.013596    0.000000    0.000000    0.000000
    13        -0.437113953623821    7.293e-07    0.013596    0.000000    0.000000    0.000000
    14        -0.437113976176491    3.040e-07    0.013596    0.000000    0.000000    0.000000
    15        -0.437113977912977    1.108e-07    0.013596    0.000000    0.000000    0.000000
    16        -0.437113978487789    4.959e-08    0.013596    0.000000    0.000000    0.000000
    17        -0.437113979067088    1.909e-08    0.013596    0.000000    0.000000    0.000000
    18        -0.437113978926190    9.899e-09    0.013596    0.000000    0.000000    0.000000
    19        -0.437113978719423    3.908e-09    0.013596    0.000000    0.000000    0.000000
    20        -0.437113978709118    2.112e-09    0.013596    0.000000    0.000000    0.000000
    21        -0.437113978686155    8.068e-10    0.013596    0.000000    0.000000    0.000000
    22        -0.437113978684633    3.249e-10    0.013596    0.000000    0.000000    0.000000
    23        -0.437113978683692    1.687e-10    0.013596    0.000000    0.000000    0.000000
    24        -0.437113978683531    6.917e-11    0.013596    0.000000    0.000000    0.000000

    Iterations converged.


    Largest TIA Amplitudes:
              5  65        -0.0133107953
              5  67        -0.0111584940
              7  94         0.0103931551
              5  66        -0.0096764589
              4  65        -0.0074571015
              3   1         0.0074055408
              2   3         0.0072150012
              4  66         0.0071689027
              3   5        -0.0055706621
              3   6         0.0054126695

    Largest Tia Amplitudes:
              3  67        -0.0147909578
              2   2         0.0134419652
              3  69        -0.0107738516
              5  96         0.0079695944
              3  66        -0.0076646041
              2   1        -0.0068356877
              2   7         0.0056291859
              2   6        -0.0055461572
              1  25        -0.0054331748
              4 109         0.0053777763

    Largest TIJAB Amplitudes:
      7   4 100  71         0.0142701224
      7   4  55  23        -0.0135897994
      7   2 100  12        -0.0121360190
      4   2  71  12         0.0110189871
      6   5  50   9        -0.0086580211
      7   4  49  23         0.0082530139
      6   5  97  72        -0.0080740735
      7   4  94  71         0.0078628760
      7   4  55   8        -0.0076190180
      7   4 100  82        -0.0073308909

    Largest Tijab Amplitudes:
      5   1  66  56         0.0086748712
      5   1  66  50        -0.0085736754
      5   1  68  56         0.0081621490
      4   3  99  67        -0.0076331984
      5   1  68  50        -0.0074596256
      4   3  99  73        -0.0073153353
      4   2  99   2         0.0071667642
      4   2  99  12         0.0068609027
      4   2 100   9        -0.0067247691
      4   3  51  10        -0.0065712933

    Largest TIjAb Amplitudes:
      7   5 100 103        -0.0219378477
      6   4  97  99        -0.0217174031
      7   5 100 102         0.0187735475
      7   1  55  66        -0.0180634022
      7   5 100  96        -0.0170890620
      7   1  55  68        -0.0168474273
      4   1  23  66        -0.0167346336
      5   3  72  73        -0.0162496777
      4   1  23  68        -0.0155677192
      4   5  71 103         0.0145699092

    SCF energy       (wfn)                    = -150.873619626722302
    Reference energy (file100)                = -150.873619626723354

    Opposite-spin MP2 correlation energy      =   -0.314357740872153
    Same-spin MP2 correlation energy          =   -0.101818429433580
    MP2 correlation energy                    =   -0.416176170305733
      * MP2 total energy                      = -151.289795797029086

    Opposite-spin CCSD correlation energy     =   -0.342012808027766
    Same-spin CCSD correlation energy         =   -0.095101170655764
    CCSD correlation energy                   =   -0.437113978683531
      * CCSD total energy                     = -151.310733605406881

            **************************
            *                        *
            *        CCTRIPLES       *
            *                        *
            **************************


    Wave function   =    CCSD_T
    Reference wfn   =      UHF

    Nuclear Rep. energy (wfn)                =   23.826068619689426
    SCF energy          (wfn)                = -150.873619626722302
    Reference energy    (file100)            = -150.873619626723354
    CCSD energy         (file100)            =   -0.437113978683531
    Total CCSD energy   (file100)            = -151.310733605406881

    Number of ijk index combinations:
    Spin Case AAA:                                  56
    Spin Case BBB:                                  20
    Spin Case AAB:                                 168
    Spin Case ABB:                                 120
    AAA (T) energy                             =   -0.000395556580019
    BBB (T) energy                             =   -0.000201986719242
    AAB (T) energy                             =   -0.006704221885891
    ABB (T) energy                             =   -0.004979452734398
    (T) energy                                   =   -0.012281217919551
      * CCSD(T) total energy                     = -151.323014823326446

Stephenergy -151.32301482332645
    Psi4 stopped on: Monday, 08 March 2021 05:51PM
    Psi4 wall time for execution: 0:02:41.64

*** Psi4 exiting successfully. Buy a developer a beer!
