
    -----------------------------------------------------------------------
          Psi4: An Open-Source Ab Initio Electronic Structure Package
                               Psi4 1.3.2 release

                         Git: Rev {HEAD} ecbda83 


    R. M. Parrish, L. A. Burns, D. G. A. Smith, A. C. Simmonett,
    A. E. DePrince III, E. G. Hohenstein, U. Bozkaya, A. Yu. Sokolov,
    R. Di Remigio, R. M. Richard, J. F. Gonthier, A. M. James,
    H. R. McAlexander, A. Kumar, M. Saitow, X. Wang, B. P. Pritchard,
    P. Verma, H. F. Schaefer III, K. Patkowski, R. A. King, E. F. Valeev,
    F. A. Evangelista, J. M. Turney, T. D. Crawford, and C. D. Sherrill,
    J. Chem. Theory Comput. 13(7) pp 3185--3197 (2017).
    (doi: 10.1021/acs.jctc.7b00174)


                         Additional Contributions by
    P. Kraus, H. Kruse, M. H. Lechner, M. C. Schieber, R. A. Shaw,
    A. Alenaizan, R. Galvelis, Z. L. Glick, S. Lehtola, and J. P. Misiewicz

    -----------------------------------------------------------------------


    Psi4 started on: Monday, 08 March 2021 09:42AM

    Process ID: 24761
    Host:       c2-24.compute.lan
    PSIDATADIR: /apps/gb/PSI4/1.3.2/share/psi4
    Memory:     500.0 MiB
    Threads:    12
    
  ==> Input File <==

--------------------------------------------------------------------------
memory 4 GB

molecule  {
0 1
O    0.000000000000    0.000000000000   -0.065780035862
H    0.000000000000   -0.758933255000    0.521988452179
H   -0.000000000000    0.758933255000    0.521988452179
}
set {
basis aug-cc-pvtz
reference uhf
e_convergence 10
scf_type pk
freeze_core true
}

set ccenergy {
e_convergence 10
r_convergence 10
}

e = energy('ccsd(t)')

print_out('Stephenergy {}'.format(e))

--------------------------------------------------------------------------

  Memory set to   3.725 GiB by Python driver.

*** tstart() called on c2-24.compute.lan
*** at Mon Mar  8 09:42:49 2021

   => Loading Basis Set <=

    Name: AUG-CC-PVTZ
    Role: ORBITAL
    Keyword: BASIS
    atoms 1   entry O          line   327 file /apps/gb/PSI4/1.3.2/share/psi4/basis/aug-cc-pvtz.gbs 
    atoms 2-3 entry H          line    36 file /apps/gb/PSI4/1.3.2/share/psi4/basis/aug-cc-pvtz.gbs 


         ---------------------------------------------------------
                                   SCF
               by Justin Turney, Rob Parrish, Andy Simmonett
                          and Daniel G. A. Smith
                              UHF Reference
                       12 Threads,   3814 MiB Core
         ---------------------------------------------------------

  ==> Geometry <==

    Molecular point group: c2v
    Full point group: C2v

    Geometry (in Angstrom), charge = 0, multiplicity = 1:

       Center              X                  Y                   Z               Mass       
    ------------   -----------------  -----------------  -----------------  -----------------
         O            0.000000000000     0.000000000000    -0.065780035862    15.994914619570
         H            0.000000000000    -0.758933255000     0.521988452179     1.007825032230
         H           -0.000000000000     0.758933255000     0.521988452179     1.007825032230

  Running in c2v symmetry.

  Rotational constants: A =     27.25927  B =     14.52025  C =      9.47382 [cm^-1]
  Rotational constants: A = 817212.25110  B = 435306.24349  C = 284017.83822 [MHz]
  Nuclear repulsion =    9.168963165482774

  Charge       = 0
  Multiplicity = 1
  Electrons    = 10
  Nalpha       = 5
  Nbeta        = 5

  ==> Algorithm <==

  SCF Algorithm Type is PK.
  DIIS enabled.
  MOM disabled.
  Fractional occupation disabled.
  Guess Type is SAD.
  Energy threshold   = 1.00e-10
  Density threshold  = 1.00e-08
  Integral threshold = 0.00e+00

  ==> Primary Basis <==

  Basis Set: AUG-CC-PVTZ
    Blend: AUG-CC-PVTZ
    Number of shells: 32
    Number of basis function: 92
    Number of Cartesian functions: 105
    Spherical Harmonics?: true
    Max angular momentum: 3

  ==> Pre-Iterations <==

   -------------------------------------------------------
    Irrep   Nso     Nmo     Nalpha   Nbeta   Ndocc  Nsocc
   -------------------------------------------------------
     A1        35      35       0       0       0       0
     A2        12      12       0       0       0       0
     B1        18      18       0       0       0       0
     B2        27      27       0       0       0       0
   -------------------------------------------------------
    Total      92      92       5       5       5       0
   -------------------------------------------------------

  ==> Integral Setup <==

  Using in-core PK algorithm.
   Calculation information:
      Number of atoms:                   3
      Number of AO shells:              32
      Number of primitives:             52
      Number of atomic orbitals:       105
      Number of basis functions:        92

      Integral cutoff                 1.00e-12
      Number of threads:                12

  Performing in-core PK
  Using 18305562 doubles for integral storage.
  We computed 240258 shell quartets total.
  Whereas there are 139656 unique shell quartets.
    72.04 percent of shell quartets recomputed by reordering.

  ==> DiskJK: Disk-Based J/K Matrices <==

    J tasked:                  Yes
    K tasked:                  Yes
    wK tasked:                  No
    Memory [MiB]:             2861
    Schwarz Cutoff:          1E-12

    OpenMP threads:             12

  Minimum eigenvalue in the overlap matrix is 3.8691862849E-04.
  Using Symmetric Orthogonalization.

  SCF Guess: Superposition of Atomic Densities via on-the-fly atomic UHF.

  ==> Iterations <==

                        Total Energy        Delta E     RMS |[F,P]|

   @UHF iter SAD:   -75.47499863184251   -7.54750e+01   0.00000e+00 
   @UHF iter   1:   -75.97606866436838   -5.01070e-01   9.51838e-03 DIIS
   @UHF iter   2:   -76.02854351747132   -5.24749e-02   6.49034e-03 DIIS
   @UHF iter   3:   -76.06000478960962   -3.14613e-02   4.40849e-04 DIIS
   @UHF iter   4:   -76.06039430710177   -3.89517e-04   1.05614e-04 DIIS
   @UHF iter   5:   -76.06041865964248   -2.43525e-05   2.39573e-05 DIIS
   @UHF iter   6:   -76.06042064970835   -1.99007e-06   5.25183e-06 DIIS
   @UHF iter   7:   -76.06042075500045   -1.05292e-07   9.50235e-07 DIIS
   @UHF iter   8:   -76.06042075803428   -3.03383e-09   1.59360e-07 DIIS
   @UHF iter   9:   -76.06042075810090   -6.66205e-11   3.92228e-08 DIIS
   @UHF iter  10:   -76.06042075810471   -3.80851e-12   5.71372e-09 DIIS
  Energy and wave function converged.


  ==> Post-Iterations <==

   @Spin Contamination Metric:  -1.332267630E-14
   @S^2 Expected:                0.000000000E+00
   @S^2 Observed:               -1.332267630E-14
   @S   Expected:                0.000000000E+00
   @S   Observed:                0.000000000E+00

    Orbital Energies [Eh]
    ---------------------

    Alpha Occupied:                                                       

       1A1   -20.567678     2A1    -1.352237     1B2    -0.716321  
       3A1    -0.584486     1B1    -0.510149  

    Alpha Virtual:                                                        

       4A1     0.029409     2B2     0.047675     5A1     0.135948  
       2B1     0.158649     6A1     0.175127     3B2     0.182987  
       4B2     0.227376     7A1     0.244934     1A2     0.265261  
       3B1     0.300466     8A1     0.310421     5B2     0.365771  
       9A1     0.437629     6B2     0.466312     7B2     0.599509  
      10A1     0.658219    11A1     0.708295     2A2     0.722325  
       4B1     0.731631    12A1     0.830610     5B1     0.846139  
      13A1     0.891768     8B2     0.912762     6B1     0.918604  
       3A2     0.922352     9B2     0.930604    14A1     0.962285  
      15A1     1.021475    10B2     1.043663     7B1     1.082854  
      11B2     1.109045     4A2     1.176126    16A1     1.181725  
      12B2     1.260425     5A2     1.510691    17A1     1.537479  
       8B1     1.584366    18A1     1.804023    13B2     1.818203  
      14B2     1.986809    19A1     2.117937     9B1     2.262477  
       6A2     2.316083    20A1     2.326001    21A1     2.418326  
      10B1     2.420262    15B2     2.442632    22A1     2.478748  
      16B2     2.677215    11B1     2.698032    23A1     2.771137  
      17B2     2.819139     7A2     2.884468    18B2     3.653200  
      24A1     3.745411     8A2     4.017018    12B1     4.084398  
      25A1     4.168864    19B2     4.246925    13B1     4.292058  
      26A1     4.376824     9A2     4.377816    14B1     4.405199  
      20B2     4.515901    27A1     4.724295    21B2     4.843435  
      22B2     5.146092    10A2     5.152150    23B2     5.255758  
      28A1     5.327432    15B1     5.522882    29A1     5.668315  
      30A1     6.175510    24B2     6.514449    16B1     6.709239  
      31A1     6.895396    17B1     7.133059    18B1     7.252052  
      25B2     7.308350    11A2     7.313094    32A1     7.325156  
      12A2     7.355609    33A1     7.535325    34A1     7.903204  
      26B2     7.922828    27B2     8.802892    35A1    15.751066  

    Beta Occupied:                                                        

       1A1   -20.567678     2A1    -1.352237     1B2    -0.716321  
       3A1    -0.584486     1B1    -0.510149  

    Beta Virtual:                                                         

       4A1     0.029409     2B2     0.047675     5A1     0.135948  
       2B1     0.158649     6A1     0.175127     3B2     0.182987  
       4B2     0.227376     7A1     0.244934     1A2     0.265261  
       3B1     0.300466     8A1     0.310421     5B2     0.365771  
       9A1     0.437629     6B2     0.466312     7B2     0.599509  
      10A1     0.658219    11A1     0.708295     2A2     0.722325  
       4B1     0.731631    12A1     0.830610     5B1     0.846139  
      13A1     0.891768     8B2     0.912762     6B1     0.918604  
       3A2     0.922352     9B2     0.930604    14A1     0.962285  
      15A1     1.021475    10B2     1.043663     7B1     1.082854  
      11B2     1.109045     4A2     1.176126    16A1     1.181725  
      12B2     1.260425     5A2     1.510691    17A1     1.537479  
       8B1     1.584366    18A1     1.804023    13B2     1.818203  
      14B2     1.986809    19A1     2.117937     9B1     2.262477  
       6A2     2.316083    20A1     2.326001    21A1     2.418326  
      10B1     2.420262    15B2     2.442632    22A1     2.478748  
      16B2     2.677215    11B1     2.698032    23A1     2.771137  
      17B2     2.819139     7A2     2.884468    18B2     3.653200  
      24A1     3.745411     8A2     4.017018    12B1     4.084398  
      25A1     4.168864    19B2     4.246925    13B1     4.292058  
      26A1     4.376824     9A2     4.377816    14B1     4.405199  
      20B2     4.515901    27A1     4.724295    21B2     4.843435  
      22B2     5.146092    10A2     5.152150    23B2     5.255758  
      28A1     5.327432    15B1     5.522882    29A1     5.668315  
      30A1     6.175510    24B2     6.514449    16B1     6.709239  
      31A1     6.895396    17B1     7.133059    18B1     7.252052  
      25B2     7.308350    11A2     7.313094    32A1     7.325156  
      12A2     7.355609    33A1     7.535325    34A1     7.903204  
      26B2     7.922828    27B2     8.802892    35A1    15.751066  

    Final Occupation by Irrep:
             A1    A2    B1    B2 
    DOCC [     3,    0,    1,    1 ]
    SOCC [     0,    0,    0,    0 ]

  @UHF Final Energy:   -76.06042075810471

   => Energetics <=

    Nuclear Repulsion Energy =              9.1689631654827739
    One-Electron Energy =                -122.9970259419078644
    Two-Electron Energy =                  37.7676420183203732
    Total Energy =                        -76.0604207581047120

  UHF NO Occupations:
  HONO-2 :    3 A1 2.0000000
  HONO-1 :    1 B1 2.0000000
  HONO-0 :    1 B2 2.0000000
  LUNO+0 :    4 A1 0.0000000
  LUNO+1 :    2 B1 0.0000000
  LUNO+2 :    5 A1 0.0000000
  LUNO+3 :    6 A1 0.0000000


Computation Completed


Properties will be evaluated at   0.000000,   0.000000,   0.000000 [a0]

Properties computed using the SCF density matrix

  Nuclear Dipole Moment: [e a0]
     X:     0.0000      Y:     0.0000      Z:     0.9784

  Electronic Dipole Moment: [e a0]
     X:     0.0000      Y:     0.0000      Z:    -0.1973

  Dipole Moment: [e a0]
     X:     0.0000      Y:     0.0000      Z:     0.7810     Total:     0.7810

  Dipole Moment: [D]
     X:     0.0000      Y:     0.0000      Z:     1.9852     Total:     1.9852


*** tstop() called on c2-24.compute.lan at Mon Mar  8 09:42:51 2021
Module time:
	user time   =      13.27 seconds =       0.22 minutes
	system time =       0.70 seconds =       0.01 minutes
	total time  =          2 seconds =       0.03 minutes
Total time:
	user time   =      13.27 seconds =       0.22 minutes
	system time =       0.70 seconds =       0.01 minutes
	total time  =          2 seconds =       0.03 minutes
 MINTS: Wrapper to libmints.
   by Justin Turney

   Calculation information:
      Number of threads:                12
      Number of atoms:                   3
      Number of AO shells:              32
      Number of SO shells:              23
      Number of primitives:             52
      Number of atomic orbitals:       105
      Number of basis functions:        92

      Number of irreps:                  4
      Integral cutoff                 0.00e+00
      Number of functions per irrep: [  35   12   18   27 ]

 OEINTS: Overlap, kinetic, potential, dipole, and quadrupole integrals
         stored in file 35.

      Computing two-electron integrals...done
      Computed 2240255 non-zero two-electron integrals.
        Stored in file 33.


*** tstart() called on c2-24.compute.lan
*** at Mon Mar  8 09:42:52 2021


	Wfn Parameters:
	--------------------
	Wavefunction         = CCSD_T
	Number of irreps     = 4
	Number of MOs        = 92
	Number of active MOs = 91
	AO-Basis             = NONE
	Semicanonical        = false
	Reference            = UHF
	Print Level          = 1

	IRREP	# MOs	# FZDC	# DOCC	# SOCC	# VIRT	# FZVR
	-----	-----	------	------	------	------	------
	 A1	   35	    1	    2	    0	    32	    0
	 A2	   12	    0	    0	    0	    12	    0
	 B1	   18	    0	    1	    0	    17	    0
	 B2	   27	    0	    1	    0	    26	    0
	Transforming integrals...
	IWL integrals will be deleted.
	(OO|OO)...
	Presorting SO-basis two-electron integrals.
	Sorting File: SO Ints (nn|nn) nbuckets = 1
	Transforming the one-electron integrals and constructing Fock matrices
	Starting AA/AB first half-transformation.
	Sorting AA/AB half-transformed integrals.
	Starting BB first half-transformation.
	Sorting BB half-transformed integrals.
	First half integral transformation complete.
	Starting AA second half-transformation.
	Starting AB second half-transformation.
	Starting BB second half-transformation.
	Two-electron integral transformation complete.
	(OO|OV)...
	Starting AA second half-transformation.
	Starting AB second half-transformation.
	Starting BB second half-transformation.
	Two-electron integral transformation complete.
	(OO|VV)...
	Starting AA second half-transformation.
	Starting AB second half-transformation.
	Starting BB second half-transformation.
	Two-electron integral transformation complete.
	(OV|OO)...
	Starting AA/AB first half-transformation.
	Sorting AA/AB half-transformed integrals.
	Starting BB first half-transformation.
	Sorting BB half-transformed integrals.
	First half integral transformation complete.
	Starting AA second half-transformation.
	Starting AB second half-transformation.
	Starting BB second half-transformation.
	Two-electron integral transformation complete.
	(OV|OV)...
	Starting AA second half-transformation.
	Starting AB second half-transformation.
	Starting BB second half-transformation.
	Two-electron integral transformation complete.
	(OV|VV)...
	Starting AA second half-transformation.
	Starting AB second half-transformation.
	Starting BB second half-transformation.
	Two-electron integral transformation complete.
	(VV|OO)...
	Starting AA/AB first half-transformation.
	Sorting AA/AB half-transformed integrals.
	Starting BB first half-transformation.
	Sorting BB half-transformed integrals.
	First half integral transformation complete.
	Starting AA second half-transformation.
	Starting AB second half-transformation.
	Starting BB second half-transformation.
	Two-electron integral transformation complete.
	(VV|OV)...
	Starting AA second half-transformation.
	Starting AB second half-transformation.
	Starting BB second half-transformation.
	Two-electron integral transformation complete.
	(VV|VV)...
	Starting AA second half-transformation.
	Starting AB second half-transformation.
	Starting BB second half-transformation.
	Two-electron integral transformation complete.
	Frozen core energy     =    -61.31053712515808

	Size of irrep 0 of <AB|CD> integrals:      1.047 (MW) /      8.372 (MB)
	Size of irrep 1 of <AB|CD> integrals:      0.682 (MW) /      5.458 (MB)
	Size of irrep 2 of <AB|CD> integrals:      0.733 (MW) /      5.862 (MB)
	Size of irrep 3 of <AB|CD> integrals:      1.073 (MW) /      8.586 (MB)
	Total:                                     3.535 (MW) /     28.279 (MB)

	Size of irrep 0 of <ab|cd> integrals:      1.047 (MW) /      8.372 (MB)
	Size of irrep 1 of <ab|cd> integrals:      0.682 (MW) /      5.458 (MB)
	Size of irrep 2 of <ab|cd> integrals:      0.733 (MW) /      5.862 (MB)
	Size of irrep 3 of <ab|cd> integrals:      1.073 (MW) /      8.586 (MB)
	Total:                                     3.535 (MW) /     28.279 (MB)

	Size of irrep 0 of <Ab|Cd> integrals:      4.550 (MW) /     36.398 (MB)
	Size of irrep 1 of <Ab|Cd> integrals:      2.729 (MW) /     21.833 (MB)
	Size of irrep 2 of <Ab|Cd> integrals:      2.931 (MW) /     23.448 (MB)
	Size of irrep 3 of <Ab|Cd> integrals:      4.293 (MW) /     34.345 (MB)
	Total:                                    14.503 (MW) /    116.023 (MB)

	Size of irrep 0 of <IA|BC> integrals:      0.228 (MW) /      1.826 (MB)
	Size of irrep 1 of <IA|BC> integrals:      0.111 (MW) /      0.885 (MB)
	Size of irrep 2 of <IA|BC> integrals:      0.134 (MW) /      1.068 (MB)
	Size of irrep 3 of <IA|BC> integrals:      0.199 (MW) /      1.591 (MB)
	Total:                                     0.671 (MW) /      5.371 (MB)

	Size of irrep 0 of <ia|bc> integrals:      0.228 (MW) /      1.826 (MB)
	Size of irrep 1 of <ia|bc> integrals:      0.111 (MW) /      0.885 (MB)
	Size of irrep 2 of <ia|bc> integrals:      0.134 (MW) /      1.068 (MB)
	Size of irrep 3 of <ia|bc> integrals:      0.199 (MW) /      1.591 (MB)
	Total:                                     0.671 (MW) /      5.371 (MB)

	Size of irrep 0 of <Ia|Bc> integrals:      0.228 (MW) /      1.826 (MB)
	Size of irrep 1 of <Ia|Bc> integrals:      0.111 (MW) /      0.885 (MB)
	Size of irrep 2 of <Ia|Bc> integrals:      0.134 (MW) /      1.068 (MB)
	Size of irrep 3 of <Ia|Bc> integrals:      0.199 (MW) /      1.591 (MB)
	Total:                                     0.671 (MW) /      5.371 (MB)

	Size of irrep 0 of <iA|bC> integrals:      0.228 (MW) /      1.826 (MB)
	Size of irrep 1 of <iA|bC> integrals:      0.111 (MW) /      0.885 (MB)
	Size of irrep 2 of <iA|bC> integrals:      0.134 (MW) /      1.068 (MB)
	Size of irrep 3 of <iA|bC> integrals:      0.199 (MW) /      1.591 (MB)
	Total:                                     0.671 (MW) /      5.371 (MB)

	Size of irrep 0 of tIjAb amplitudes:       0.013 (MW) /      0.102 (MB)
	Size of irrep 1 of tIjAb amplitudes:       0.003 (MW) /      0.026 (MB)
	Size of irrep 2 of tIjAb amplitudes:       0.007 (MW) /      0.055 (MB)
	Size of irrep 3 of tIjAb amplitudes:       0.008 (MW) /      0.066 (MB)
	Total:                                     0.031 (MW) /      0.250 (MB)

	Nuclear Rep. energy          =      9.16896316548277
	SCF energy                   =    -76.06042075810471
	One-electron energy          =    -41.51130804892230
	Two-electron (AA) energy     =      3.41971735180487
	Two-electron (BB) energy     =      3.41971735180487
	Two-electron (AB) energy     =     10.75302654688273
	Two-electron energy          =     17.59246125049246
	Reference energy             =    -76.06042075810514

*** tstop() called on c2-24.compute.lan at Mon Mar  8 09:43:00 2021
Module time:
	user time   =      75.03 seconds =       1.25 minutes
	system time =       4.23 seconds =       0.07 minutes
	total time  =          8 seconds =       0.13 minutes
Total time:
	user time   =      92.75 seconds =       1.55 minutes
	system time =       5.22 seconds =       0.09 minutes
	total time  =         11 seconds =       0.18 minutes
            **************************
            *                        *
            *        CCENERGY        *
            *                        *
            **************************

    Nuclear Rep. energy (wfn)     =    9.168963165482774
    SCF energy          (wfn)     =  -76.060420758104712
    Reference energy    (file100) =  -76.060420758105138

    Input parameters:
    -----------------
    Wave function   =     CCSD_T
    Reference wfn   =     UHF
    Brueckner       =     No
    Memory (Mbytes) =     4000.0
    Maxiter         =     50
    R_Convergence   =     1.0e-10
    E_Convergence   =     1.0e-10
    Restart         =     Yes
    DIIS            =     Yes
    AO Basis        =     NONE
    ABCD            =     NEW
    Cache Level     =     2
    Cache Type      =     LRU
    Print Level     =     1
    Num. of threads =     12
    # Amps to Print =     10
    Print MP2 Amps? =     No
    Analyze T2 Amps =     No
    Print Pair Ener =     No
    Local CC        =     No
    SCS-MP2         =     False
    SCSN-MP2        =     False
    SCS-CCSD        =     False

MP2 correlation energy -0.2685653474827603
                Solving CC Amplitude Equations
                ------------------------------
  Iter             Energy              RMS        T1Diag      D1Diag    New D1Diag    D2Diag
  ----     ---------------------    ---------   ----------  ----------  ----------   --------
     0        -0.268565347482760    0.000e+00    0.000000    0.000000    0.000000    0.000000
     1        -0.267095769584255    4.757e-02    0.012074    0.000000    0.000000    0.000000
     2        -0.272153639970890    1.309e-02    0.011851    0.000000    0.000000    0.000000
     3        -0.273367807035479    6.151e-03    0.013697    0.000000    0.000000    0.000000
     4        -0.273263482692758    1.237e-03    0.014019    0.000000    0.000000    0.000000
     5        -0.273247166487738    4.558e-04    0.014151    0.000000    0.000000    0.000000
     6        -0.273248050368606    1.136e-04    0.014180    0.000000    0.000000    0.000000
     7        -0.273246841057686    3.841e-05    0.014186    0.000000    0.000000    0.000000
     8        -0.273246881241926    1.050e-05    0.014188    0.000000    0.000000    0.000000
     9        -0.273246928793362    3.234e-06    0.014189    0.000000    0.000000    0.000000
    10        -0.273246809238996    1.308e-06    0.014189    0.000000    0.000000    0.000000
    11        -0.273246826843678    4.507e-07    0.014189    0.000000    0.000000    0.000000
    12        -0.273246821948267    1.682e-07    0.014189    0.000000    0.000000    0.000000
    13        -0.273246823705326    4.957e-08    0.014189    0.000000    0.000000    0.000000
    14        -0.273246824893242    1.317e-08    0.014189    0.000000    0.000000    0.000000
    15        -0.273246824941727    4.030e-09    0.014189    0.000000    0.000000    0.000000
    16        -0.273246824942372    1.233e-09    0.014189    0.000000    0.000000    0.000000
    17        -0.273246824950642    4.238e-10    0.014189    0.000000    0.000000    0.000000
    18        -0.273246824947507    1.096e-10    0.014189    0.000000    0.000000    0.000000
    19        -0.273246824947100    3.298e-11    0.014189    0.000000    0.000000    0.000000

    Iterations converged.


    Largest TIA Amplitudes:
              2  44        -0.0150675357
              2  45        -0.0129985340
              1   1         0.0085196801
              1   4        -0.0078214001
              3  73         0.0054256122
              2  54         0.0042739367
              3  69         0.0037808864
              2  47        -0.0036796484
              3  80         0.0035862940
              1  23         0.0033917435

    Largest Tia Amplitudes:
              2  44        -0.0150675357
              2  45        -0.0129985340
              1   1         0.0085196801
              1   4        -0.0078214001
              3  73         0.0054256122
              2  54         0.0042739367
              3  69         0.0037808864
              2  47        -0.0036796484
              3  80         0.0035862940
              1  23         0.0033917435

    Largest TIJAB Amplitudes:
      2   1  46   7        -0.0095620316
      3   1  66   6        -0.0093806220
      3   2  33   6        -0.0085940200
      3   1  65   9         0.0081218697
      2   1  49   9         0.0079374754
      3   2  65  49        -0.0076089575
      3   1  66  13         0.0074252607
      3   2  65  44        -0.0073965187
      2   1  48   9         0.0072780547
      3   2  65  45        -0.0071784118

    Largest Tijab Amplitudes:
      2   1  46   7        -0.0095620316
      3   1  66   6        -0.0093806220
      3   2  33   6        -0.0085940200
      3   1  65   9         0.0081218697
      2   1  49   9         0.0079374754
      3   2  65  49        -0.0076089575
      3   1  66  13         0.0074252607
      3   2  65  44        -0.0073965187
      2   1  48   9         0.0072780547
      3   2  65  45        -0.0071784118

    Largest TIjAb Amplitudes:
      3   3  65  65        -0.0214310968
      1   1   9   9        -0.0199803951
      2   2  49  49        -0.0155960581
      3   3  65  69        -0.0155066591
      3   3  69  65        -0.0155066591
      3   3  66  66        -0.0148773331
      1   1  66  66        -0.0138067564
      2   2  48  48        -0.0134874818
      3   3  69  69        -0.0132319085
      1   3   9  65         0.0128386410

    SCF energy       (wfn)                    =  -76.060420758104712
    Reference energy (file100)                =  -76.060420758105138

    Opposite-spin MP2 correlation energy      =   -0.203379523843354
    Same-spin MP2 correlation energy          =   -0.065185823639406
    MP2 correlation energy                    =   -0.268565347482760
      * MP2 total energy                      =  -76.328986105587902

    Opposite-spin CCSD correlation energy     =   -0.215358414295324
    Same-spin CCSD correlation energy         =   -0.057888410651776
    CCSD correlation energy                   =   -0.273246824947100
      * CCSD total energy                     =  -76.333667583052232

            **************************
            *                        *
            *        CCTRIPLES       *
            *                        *
            **************************


    Wave function   =    CCSD_T
    Reference wfn   =      UHF

    Nuclear Rep. energy (wfn)                =    9.168963165482774
    SCF energy          (wfn)                =  -76.060420758104712
    Reference energy    (file100)            =  -76.060420758105138
    CCSD energy         (file100)            =   -0.273246824947100
    Total CCSD energy   (file100)            =  -76.333667583052232

    Number of ijk index combinations:
    Spin Case AAA:                                   4
    Spin Case BBB:                                   4
    Spin Case AAB:                                  24
    Spin Case ABB:                                  24
    AAA (T) energy                             =   -0.000193264594879
    BBB (T) energy                             =   -0.000193264594879
    AAB (T) energy                             =   -0.004132610820449
    ABB (T) energy                             =   -0.004132610820449
    (T) energy                                   =   -0.008651750830656
      * CCSD(T) total energy                     =  -76.342319333882898

Stephenergy -76.3423193338829
    Psi4 stopped on: Monday, 08 March 2021 09:43AM
    Psi4 wall time for execution: 0:00:19.32

*** Psi4 exiting successfully. Buy a developer a beer!
