
Host: ss-sub1.gacrc.uga.edu

Timers On : Wed Mar 10 10:56:52 2021
Timers Off: Wed Mar 10 13:13:59 2021

Wall Time:     8226.64 seconds

                                                       Time (seconds)
Module                                       User      System        Wall        Calls

--------------------------------------------------------------------------------------

**************************************************************************************

Host: ss-sub1.gacrc.uga.edu

Timers On : Wed Mar 10 13:24:41 2021
Timers Off: Wed Mar 10 13:24:44 2021

Wall Time:        2.52 seconds

                                                       Time (seconds)
Module                                       User      System        Wall        Calls

--------------------------------------------------------------------------------------

**************************************************************************************
