
    -----------------------------------------------------------------------
          Psi4: An Open-Source Ab Initio Electronic Structure Package
                               Psi4 1.3.2 release

                         Git: Rev {HEAD} ecbda83 


    R. M. Parrish, L. A. Burns, D. G. A. Smith, A. C. Simmonett,
    A. E. DePrince III, E. G. Hohenstein, U. Bozkaya, A. Yu. Sokolov,
    R. Di Remigio, R. M. Richard, J. F. Gonthier, A. M. James,
    H. R. McAlexander, A. Kumar, M. Saitow, X. Wang, B. P. Pritchard,
    P. Verma, H. F. Schaefer III, K. Patkowski, R. A. King, E. F. Valeev,
    F. A. Evangelista, J. M. Turney, T. D. Crawford, and C. D. Sherrill,
    J. Chem. Theory Comput. 13(7) pp 3185--3197 (2017).
    (doi: 10.1021/acs.jctc.7b00174)


                         Additional Contributions by
    P. Kraus, H. Kruse, M. H. Lechner, M. C. Schieber, R. A. Shaw,
    A. Alenaizan, R. Galvelis, Z. L. Glick, S. Lehtola, and J. P. Misiewicz

    -----------------------------------------------------------------------


    Psi4 started on: Monday, 08 March 2021 09:45AM

    Process ID: 25472
    Host:       c2-24.compute.lan
    PSIDATADIR: /apps/gb/PSI4/1.3.2/share/psi4
    Memory:     500.0 MiB
    Threads:    12
    
  ==> Input File <==

--------------------------------------------------------------------------
memory 4 GB

molecule  {
0 1
O    0.000000000000    0.000000000000   -0.065899951015
H    0.000000000000   -0.758660195400    0.522940022426
H   -0.000000000000    0.758660195400    0.522940022426
}
set {
basis aug-cc-pvtz
reference uhf
e_convergence 10
scf_type pk
freeze_core true
}

set ccenergy {
e_convergence 10
r_convergence 10
}

e = energy('ccsd(t)')

print_out('Stephenergy {}'.format(e))

--------------------------------------------------------------------------

  Memory set to   3.725 GiB by Python driver.

*** tstart() called on c2-24.compute.lan
*** at Mon Mar  8 09:45:49 2021

   => Loading Basis Set <=

    Name: AUG-CC-PVTZ
    Role: ORBITAL
    Keyword: BASIS
    atoms 1   entry O          line   327 file /apps/gb/PSI4/1.3.2/share/psi4/basis/aug-cc-pvtz.gbs 
    atoms 2-3 entry H          line    36 file /apps/gb/PSI4/1.3.2/share/psi4/basis/aug-cc-pvtz.gbs 


         ---------------------------------------------------------
                                   SCF
               by Justin Turney, Rob Parrish, Andy Simmonett
                          and Daniel G. A. Smith
                              UHF Reference
                       12 Threads,   3814 MiB Core
         ---------------------------------------------------------

  ==> Geometry <==

    Molecular point group: c2v
    Full point group: C2v

    Geometry (in Angstrom), charge = 0, multiplicity = 1:

       Center              X                  Y                   Z               Mass       
    ------------   -----------------  -----------------  -----------------  -----------------
         O            0.000000000000     0.000000000000    -0.065899951015    15.994914619570
         H            0.000000000000    -0.758660195400     0.522940022426     1.007825032230
         H           -0.000000000000     0.758660195400     0.522940022426     1.007825032230

  Running in c2v symmetry.

  Rotational constants: A =     27.16015  B =     14.53071  C =      9.46625 [cm^-1]
  Rotational constants: A = 814240.86885  B = 435619.65373  C = 283791.12624 [MHz]
  Nuclear repulsion =    9.165040830895911

  Charge       = 0
  Multiplicity = 1
  Electrons    = 10
  Nalpha       = 5
  Nbeta        = 5

  ==> Algorithm <==

  SCF Algorithm Type is PK.
  DIIS enabled.
  MOM disabled.
  Fractional occupation disabled.
  Guess Type is SAD.
  Energy threshold   = 1.00e-10
  Density threshold  = 1.00e-08
  Integral threshold = 0.00e+00

  ==> Primary Basis <==

  Basis Set: AUG-CC-PVTZ
    Blend: AUG-CC-PVTZ
    Number of shells: 32
    Number of basis function: 92
    Number of Cartesian functions: 105
    Spherical Harmonics?: true
    Max angular momentum: 3

  ==> Pre-Iterations <==

   -------------------------------------------------------
    Irrep   Nso     Nmo     Nalpha   Nbeta   Ndocc  Nsocc
   -------------------------------------------------------
     A1        35      35       0       0       0       0
     A2        12      12       0       0       0       0
     B1        18      18       0       0       0       0
     B2        27      27       0       0       0       0
   -------------------------------------------------------
    Total      92      92       5       5       5       0
   -------------------------------------------------------

  ==> Integral Setup <==

  Using in-core PK algorithm.
   Calculation information:
      Number of atoms:                   3
      Number of AO shells:              32
      Number of primitives:             52
      Number of atomic orbitals:       105
      Number of basis functions:        92

      Integral cutoff                 1.00e-12
      Number of threads:                12

  Performing in-core PK
  Using 18305562 doubles for integral storage.
  We computed 240258 shell quartets total.
  Whereas there are 139656 unique shell quartets.
    72.04 percent of shell quartets recomputed by reordering.

  ==> DiskJK: Disk-Based J/K Matrices <==

    J tasked:                  Yes
    K tasked:                  Yes
    wK tasked:                  No
    Memory [MiB]:             2861
    Schwarz Cutoff:          1E-12

    OpenMP threads:             12

  Minimum eigenvalue in the overlap matrix is 3.8751235128E-04.
  Using Symmetric Orthogonalization.

  SCF Guess: Superposition of Atomic Densities via on-the-fly atomic UHF.

  ==> Iterations <==

                        Total Energy        Delta E     RMS |[F,P]|

   @UHF iter SAD:   -75.47461489496150   -7.54746e+01   0.00000e+00 
   @UHF iter   1:   -75.97599648409670   -5.01382e-01   9.51757e-03 DIIS
   @UHF iter   2:   -76.02846003654129   -5.24636e-02   6.49378e-03 DIIS
   @UHF iter   3:   -76.05996298460242   -3.15029e-02   4.41103e-04 DIIS
   @UHF iter   4:   -76.06035299300228   -3.90008e-04   1.05780e-04 DIIS
   @UHF iter   5:   -76.06037744111106   -2.44481e-05   2.40128e-05 DIIS
   @UHF iter   6:   -76.06037944082412   -1.99971e-06   5.26211e-06 DIIS
   @UHF iter   7:   -76.06037954648335   -1.05659e-07   9.50257e-07 DIIS
   @UHF iter   8:   -76.06037954951411   -3.03076e-09   1.59451e-07 DIIS
   @UHF iter   9:   -76.06037954958092   -6.68052e-11   3.92462e-08 DIIS
   @UHF iter  10:   -76.06037954958509   -4.17799e-12   5.73049e-09 DIIS
  Energy and wave function converged.


  ==> Post-Iterations <==

   @Spin Contamination Metric:   4.174438573E-14
   @S^2 Expected:                0.000000000E+00
   @S^2 Observed:                4.174438573E-14
   @S   Expected:                0.000000000E+00
   @S   Observed:                0.000000000E+00

    Orbital Energies [Eh]
    ---------------------

    Alpha Occupied:                                                       

       1A1   -20.567809     2A1    -1.352097     1B2    -0.715846  
       3A1    -0.584638     1B1    -0.510148  

    Alpha Virtual:                                                        

       4A1     0.029395     2B2     0.047681     5A1     0.135929  
       2B1     0.158692     6A1     0.175139     3B2     0.183017  
       4B2     0.227296     7A1     0.244931     1A2     0.265303  
       3B1     0.300318     8A1     0.310328     5B2     0.365775  
       9A1     0.437536     6B2     0.466225     7B2     0.599405  
      10A1     0.658300    11A1     0.708186     2A2     0.722427  
       4B1     0.731640    12A1     0.830583     5B1     0.846199  
      13A1     0.891901     8B2     0.912673     6B1     0.918489  
       3A2     0.922357     9B2     0.930663    14A1     0.961990  
      15A1     1.021273    10B2     1.043479     7B1     1.082738  
      11B2     1.108840     4A2     1.176135    16A1     1.181750  
      12B2     1.260605     5A2     1.510486    17A1     1.536696  
       8B1     1.583789    18A1     1.804423    13B2     1.818879  
      14B2     1.985864    19A1     2.117701     9B1     2.262517  
       6A2     2.315936    20A1     2.326235    21A1     2.418287  
      10B1     2.420342    15B2     2.442762    22A1     2.478997  
      16B2     2.677220    11B1     2.698020    23A1     2.770982  
      17B2     2.817913     7A2     2.884265    18B2     3.652851  
      24A1     3.743948     8A2     4.017159    12B1     4.083794  
      25A1     4.167108    19B2     4.246894    13B1     4.290397  
      26A1     4.375935     9A2     4.377557    14B1     4.404967  
      20B2     4.516266    27A1     4.724296    21B2     4.843041  
      22B2     5.146555    10A2     5.150619    23B2     5.253613  
      28A1     5.325686    15B1     5.522071    29A1     5.666123  
      30A1     6.175923    24B2     6.514002    16B1     6.709107  
      31A1     6.895951    17B1     7.132448    18B1     7.251668  
      25B2     7.305153    11A2     7.312521    32A1     7.326139  
      12A2     7.355142    33A1     7.533642    34A1     7.900823  
      26B2     7.922350    27B2     8.801575    35A1    15.736716  

    Beta Occupied:                                                        

       1A1   -20.567809     2A1    -1.352097     1B2    -0.715846  
       3A1    -0.584638     1B1    -0.510148  

    Beta Virtual:                                                         

       4A1     0.029395     2B2     0.047681     5A1     0.135929  
       2B1     0.158692     6A1     0.175139     3B2     0.183017  
       4B2     0.227296     7A1     0.244931     1A2     0.265303  
       3B1     0.300318     8A1     0.310328     5B2     0.365775  
       9A1     0.437536     6B2     0.466225     7B2     0.599405  
      10A1     0.658300    11A1     0.708186     2A2     0.722427  
       4B1     0.731640    12A1     0.830583     5B1     0.846199  
      13A1     0.891901     8B2     0.912673     6B1     0.918489  
       3A2     0.922357     9B2     0.930663    14A1     0.961990  
      15A1     1.021273    10B2     1.043479     7B1     1.082738  
      11B2     1.108840     4A2     1.176135    16A1     1.181750  
      12B2     1.260605     5A2     1.510486    17A1     1.536696  
       8B1     1.583789    18A1     1.804423    13B2     1.818879  
      14B2     1.985864    19A1     2.117701     9B1     2.262517  
       6A2     2.315936    20A1     2.326235    21A1     2.418287  
      10B1     2.420342    15B2     2.442762    22A1     2.478997  
      16B2     2.677220    11B1     2.698020    23A1     2.770982  
      17B2     2.817913     7A2     2.884265    18B2     3.652851  
      24A1     3.743948     8A2     4.017159    12B1     4.083794  
      25A1     4.167108    19B2     4.246894    13B1     4.290397  
      26A1     4.375935     9A2     4.377557    14B1     4.404967  
      20B2     4.516266    27A1     4.724296    21B2     4.843041  
      22B2     5.146555    10A2     5.150619    23B2     5.253613  
      28A1     5.325686    15B1     5.522071    29A1     5.666123  
      30A1     6.175923    24B2     6.514002    16B1     6.709107  
      31A1     6.895951    17B1     7.132448    18B1     7.251668  
      25B2     7.305153    11A2     7.312521    32A1     7.326139  
      12A2     7.355142    33A1     7.533642    34A1     7.900823  
      26B2     7.922350    27B2     8.801575    35A1    15.736716  

    Final Occupation by Irrep:
             A1    A2    B1    B2 
    DOCC [     3,    0,    1,    1 ]
    SOCC [     0,    0,    0,    0 ]

  @UHF Final Energy:   -76.06037954958509

   => Energetics <=

    Nuclear Repulsion Energy =              9.1650408308959115
    One-Electron Energy =                -122.9897640576787410
    Two-Electron Energy =                  37.7643436771977363
    Total Energy =                        -76.0603795495850932

  UHF NO Occupations:
  HONO-2 :    1 A1 2.0000000
  HONO-1 :    2 A1 2.0000000
  HONO-0 :    3 A1 2.0000000
  LUNO+0 :    4 A1 0.0000000
  LUNO+1 :    5 A1 0.0000000
  LUNO+2 :    2 B1 0.0000000
  LUNO+3 :    6 A1 0.0000000


Computation Completed


Properties will be evaluated at   0.000000,   0.000000,   0.000000 [a0]

Properties computed using the SCF density matrix

  Nuclear Dipole Moment: [e a0]
     X:     0.0000      Y:     0.0000      Z:     0.9802

  Electronic Dipole Moment: [e a0]
     X:     0.0000      Y:     0.0000      Z:    -0.1982

  Dipole Moment: [e a0]
     X:     0.0000      Y:     0.0000      Z:     0.7820     Total:     0.7820

  Dipole Moment: [D]
     X:     0.0000      Y:     0.0000      Z:     1.9876     Total:     1.9876


*** tstop() called on c2-24.compute.lan at Mon Mar  8 09:45:51 2021
Module time:
	user time   =      15.55 seconds =       0.26 minutes
	system time =       0.83 seconds =       0.01 minutes
	total time  =          2 seconds =       0.03 minutes
Total time:
	user time   =      15.55 seconds =       0.26 minutes
	system time =       0.83 seconds =       0.01 minutes
	total time  =          2 seconds =       0.03 minutes
 MINTS: Wrapper to libmints.
   by Justin Turney

   Calculation information:
      Number of threads:                12
      Number of atoms:                   3
      Number of AO shells:              32
      Number of SO shells:              23
      Number of primitives:             52
      Number of atomic orbitals:       105
      Number of basis functions:        92

      Number of irreps:                  4
      Integral cutoff                 0.00e+00
      Number of functions per irrep: [  35   12   18   27 ]

 OEINTS: Overlap, kinetic, potential, dipole, and quadrupole integrals
         stored in file 35.

      Computing two-electron integrals...done
      Computed 2239393 non-zero two-electron integrals.
        Stored in file 33.


*** tstart() called on c2-24.compute.lan
*** at Mon Mar  8 09:45:53 2021


	Wfn Parameters:
	--------------------
	Wavefunction         = CCSD_T
	Number of irreps     = 4
	Number of MOs        = 92
	Number of active MOs = 91
	AO-Basis             = NONE
	Semicanonical        = false
	Reference            = UHF
	Print Level          = 1

	IRREP	# MOs	# FZDC	# DOCC	# SOCC	# VIRT	# FZVR
	-----	-----	------	------	------	------	------
	 A1	   35	    1	    2	    0	    32	    0
	 A2	   12	    0	    0	    0	    12	    0
	 B1	   18	    0	    1	    0	    17	    0
	 B2	   27	    0	    1	    0	    26	    0
	Transforming integrals...
	IWL integrals will be deleted.
	(OO|OO)...
	Presorting SO-basis two-electron integrals.
	Sorting File: SO Ints (nn|nn) nbuckets = 1
	Transforming the one-electron integrals and constructing Fock matrices
	Starting AA/AB first half-transformation.
	Sorting AA/AB half-transformed integrals.
	Starting BB first half-transformation.
	Sorting BB half-transformed integrals.
	First half integral transformation complete.
	Starting AA second half-transformation.
	Starting AB second half-transformation.
	Starting BB second half-transformation.
	Two-electron integral transformation complete.
	(OO|OV)...
	Starting AA second half-transformation.
	Starting AB second half-transformation.
	Starting BB second half-transformation.
	Two-electron integral transformation complete.
	(OO|VV)...
	Starting AA second half-transformation.
	Starting AB second half-transformation.
	Starting BB second half-transformation.
	Two-electron integral transformation complete.
	(OV|OO)...
	Starting AA/AB first half-transformation.
	Sorting AA/AB half-transformed integrals.
	Starting BB first half-transformation.
	Sorting BB half-transformed integrals.
	First half integral transformation complete.
	Starting AA second half-transformation.
	Starting AB second half-transformation.
	Starting BB second half-transformation.
	Two-electron integral transformation complete.
	(OV|OV)...
	Starting AA second half-transformation.
	Starting AB second half-transformation.
	Starting BB second half-transformation.
	Two-electron integral transformation complete.
	(OV|VV)...
	Starting AA second half-transformation.
	Starting AB second half-transformation.
	Starting BB second half-transformation.
	Two-electron integral transformation complete.
	(VV|OO)...
	Starting AA/AB first half-transformation.
	Sorting AA/AB half-transformed integrals.
	Starting BB first half-transformation.
	Sorting BB half-transformed integrals.
	First half integral transformation complete.
	Starting AA second half-transformation.
	Starting AB second half-transformation.
	Starting BB second half-transformation.
	Two-electron integral transformation complete.
	(VV|OV)...
	Starting AA second half-transformation.
	Starting AB second half-transformation.
	Starting BB second half-transformation.
	Two-electron integral transformation complete.
	(VV|VV)...
	Starting AA second half-transformation.
	Starting AB second half-transformation.
	Starting BB second half-transformation.
	Two-electron integral transformation complete.
	Frozen core energy     =    -61.30952680793893

	Size of irrep 0 of <AB|CD> integrals:      1.047 (MW) /      8.372 (MB)
	Size of irrep 1 of <AB|CD> integrals:      0.682 (MW) /      5.458 (MB)
	Size of irrep 2 of <AB|CD> integrals:      0.733 (MW) /      5.862 (MB)
	Size of irrep 3 of <AB|CD> integrals:      1.073 (MW) /      8.586 (MB)
	Total:                                     3.535 (MW) /     28.279 (MB)

	Size of irrep 0 of <ab|cd> integrals:      1.047 (MW) /      8.372 (MB)
	Size of irrep 1 of <ab|cd> integrals:      0.682 (MW) /      5.458 (MB)
	Size of irrep 2 of <ab|cd> integrals:      0.733 (MW) /      5.862 (MB)
	Size of irrep 3 of <ab|cd> integrals:      1.073 (MW) /      8.586 (MB)
	Total:                                     3.535 (MW) /     28.279 (MB)

	Size of irrep 0 of <Ab|Cd> integrals:      4.550 (MW) /     36.398 (MB)
	Size of irrep 1 of <Ab|Cd> integrals:      2.729 (MW) /     21.833 (MB)
	Size of irrep 2 of <Ab|Cd> integrals:      2.931 (MW) /     23.448 (MB)
	Size of irrep 3 of <Ab|Cd> integrals:      4.293 (MW) /     34.345 (MB)
	Total:                                    14.503 (MW) /    116.023 (MB)

	Size of irrep 0 of <IA|BC> integrals:      0.228 (MW) /      1.826 (MB)
	Size of irrep 1 of <IA|BC> integrals:      0.111 (MW) /      0.885 (MB)
	Size of irrep 2 of <IA|BC> integrals:      0.134 (MW) /      1.068 (MB)
	Size of irrep 3 of <IA|BC> integrals:      0.199 (MW) /      1.591 (MB)
	Total:                                     0.671 (MW) /      5.371 (MB)

	Size of irrep 0 of <ia|bc> integrals:      0.228 (MW) /      1.826 (MB)
	Size of irrep 1 of <ia|bc> integrals:      0.111 (MW) /      0.885 (MB)
	Size of irrep 2 of <ia|bc> integrals:      0.134 (MW) /      1.068 (MB)
	Size of irrep 3 of <ia|bc> integrals:      0.199 (MW) /      1.591 (MB)
	Total:                                     0.671 (MW) /      5.371 (MB)

	Size of irrep 0 of <Ia|Bc> integrals:      0.228 (MW) /      1.826 (MB)
	Size of irrep 1 of <Ia|Bc> integrals:      0.111 (MW) /      0.885 (MB)
	Size of irrep 2 of <Ia|Bc> integrals:      0.134 (MW) /      1.068 (MB)
	Size of irrep 3 of <Ia|Bc> integrals:      0.199 (MW) /      1.591 (MB)
	Total:                                     0.671 (MW) /      5.371 (MB)

	Size of irrep 0 of <iA|bC> integrals:      0.228 (MW) /      1.826 (MB)
	Size of irrep 1 of <iA|bC> integrals:      0.111 (MW) /      0.885 (MB)
	Size of irrep 2 of <iA|bC> integrals:      0.134 (MW) /      1.068 (MB)
	Size of irrep 3 of <iA|bC> integrals:      0.199 (MW) /      1.591 (MB)
	Total:                                     0.671 (MW) /      5.371 (MB)

	Size of irrep 0 of tIjAb amplitudes:       0.013 (MW) /      0.102 (MB)
	Size of irrep 1 of tIjAb amplitudes:       0.003 (MW) /      0.026 (MB)
	Size of irrep 2 of tIjAb amplitudes:       0.007 (MW) /      0.055 (MB)
	Size of irrep 3 of tIjAb amplitudes:       0.008 (MW) /      0.066 (MB)
	Total:                                     0.031 (MW) /      0.250 (MB)

	Nuclear Rep. energy          =      9.16504083089591
	SCF energy                   =    -76.06037954958509
	One-electron energy          =    -41.50632899177717
	Two-electron (AA) energy     =      3.41932633511333
	Two-electron (BB) energy     =      3.41932633511333
	Two-electron (AB) energy     =     10.75178274900866
	Two-electron energy          =     17.59043541923532
	Reference energy             =    -76.06037954958488

*** tstop() called on c2-24.compute.lan at Mon Mar  8 09:46:02 2021
Module time:
	user time   =      82.13 seconds =       1.37 minutes
	system time =       4.57 seconds =       0.08 minutes
	total time  =          9 seconds =       0.15 minutes
Total time:
	user time   =     101.83 seconds =       1.70 minutes
	system time =       5.71 seconds =       0.10 minutes
	total time  =         13 seconds =       0.22 minutes
            **************************
            *                        *
            *        CCENERGY        *
            *                        *
            **************************

    Nuclear Rep. energy (wfn)     =    9.165040830895911
    SCF energy          (wfn)     =  -76.060379549585093
    Reference energy    (file100) =  -76.060379549584880

    Input parameters:
    -----------------
    Wave function   =     CCSD_T
    Reference wfn   =     UHF
    Brueckner       =     No
    Memory (Mbytes) =     4000.0
    Maxiter         =     50
    R_Convergence   =     1.0e-10
    E_Convergence   =     1.0e-10
    Restart         =     Yes
    DIIS            =     Yes
    AO Basis        =     NONE
    ABCD            =     NEW
    Cache Level     =     2
    Cache Type      =     LRU
    Print Level     =     1
    Num. of threads =     12
    # Amps to Print =     10
    Print MP2 Amps? =     No
    Analyze T2 Amps =     No
    Print Pair Ener =     No
    Local CC        =     No
    SCS-MP2         =     False
    SCSN-MP2        =     False
    SCS-CCSD        =     False

MP2 correlation energy -0.2686098694157273
                Solving CC Amplitude Equations
                ------------------------------
  Iter             Energy              RMS        T1Diag      D1Diag    New D1Diag    D2Diag
  ----     ---------------------    ---------   ----------  ----------  ----------   --------
     0        -0.268609869415727    0.000e+00    0.000000    0.000000    0.000000    0.000000
     1        -0.267127756254369    4.761e-02    0.012084    0.000000    0.000000    0.000000
     2        -0.272191297132561    1.310e-02    0.011860    0.000000    0.000000    0.000000
     3        -0.273407163399749    6.158e-03    0.013708    0.000000    0.000000    0.000000
     4        -0.273302750548817    1.239e-03    0.014031    0.000000    0.000000    0.000000
     5        -0.273286434259628    4.565e-04    0.014163    0.000000    0.000000    0.000000
     6        -0.273287316626532    1.137e-04    0.014192    0.000000    0.000000    0.000000
     7        -0.273286104569289    3.847e-05    0.014198    0.000000    0.000000    0.000000
     8        -0.273286145107110    1.052e-05    0.014200    0.000000    0.000000    0.000000
     9        -0.273286192448274    3.238e-06    0.014201    0.000000    0.000000    0.000000
    10        -0.273286072715964    1.309e-06    0.014201    0.000000    0.000000    0.000000
    11        -0.273286090327101    4.511e-07    0.014201    0.000000    0.000000    0.000000
    12        -0.273286085404516    1.684e-07    0.014201    0.000000    0.000000    0.000000
    13        -0.273286087164434    4.964e-08    0.014201    0.000000    0.000000    0.000000
    14        -0.273286088353653    1.319e-08    0.014201    0.000000    0.000000    0.000000
    15        -0.273286088402580    4.031e-09    0.014201    0.000000    0.000000    0.000000
    16        -0.273286088403561    1.233e-09    0.014201    0.000000    0.000000    0.000000
    17        -0.273286088411949    4.237e-10    0.014201    0.000000    0.000000    0.000000
    18        -0.273286088408844    1.096e-10    0.014201    0.000000    0.000000    0.000000
    19        -0.273286088408448    3.300e-11    0.014201    0.000000    0.000000    0.000000

    Iterations converged.


    Largest TIA Amplitudes:
              2  44        -0.0150837025
              2  45        -0.0130122346
              1   1         0.0085180179
              1   4        -0.0078150473
              3  73         0.0054299232
              2  54         0.0042751687
              3  69         0.0037862183
              2  47        -0.0036782270
              3  80         0.0035933479
              1  23         0.0033928423

    Largest Tia Amplitudes:
              2  44        -0.0150837025
              2  45        -0.0130122346
              1   1         0.0085180179
              1   4        -0.0078150473
              3  73         0.0054299232
              2  54         0.0042751687
              3  69         0.0037862183
              2  47        -0.0036782270
              3  80         0.0035933479
              1  23         0.0033928423

    Largest TIJAB Amplitudes:
      2   1  46   7        -0.0095642129
      3   1  66   6        -0.0093811778
      3   2  33   6        -0.0085833569
      3   1  65   9         0.0081191203
      2   1  49   9         0.0079380732
      3   2  65  49        -0.0076197261
      3   1  66  13         0.0074260617
      3   2  65  44        -0.0074030949
      2   1  48   9         0.0072688980
      3   2  65  45        -0.0071828708

    Largest Tijab Amplitudes:
      2   1  46   7        -0.0095642129
      3   1  66   6        -0.0093811778
      3   2  33   6        -0.0085833569
      3   1  65   9         0.0081191203
      2   1  49   9         0.0079380732
      3   2  65  49        -0.0076197261
      3   1  66  13         0.0074260617
      3   2  65  44        -0.0074030949
      2   1  48   9         0.0072688980
      3   2  65  45        -0.0071828708

    Largest TIjAb Amplitudes:
      3   3  65  65        -0.0214865390
      1   1   9   9        -0.0199583567
      2   2  49  49        -0.0156151316
      3   3  65  69        -0.0155250969
      3   3  69  65        -0.0155250969
      3   3  66  66        -0.0148776942
      1   1  66  66        -0.0137988975
      2   2  48  48        -0.0134843997
      3   3  69  69        -0.0132250781
      1   3   9  65         0.0128402014

    SCF energy       (wfn)                    =  -76.060379549585093
    Reference energy (file100)                =  -76.060379549584880

    Opposite-spin MP2 correlation energy      =   -0.203413484939692
    Same-spin MP2 correlation energy          =   -0.065196384476035
    MP2 correlation energy                    =   -0.268609869415727
      * MP2 total energy                      =  -76.328989419000607

    Opposite-spin CCSD correlation energy     =   -0.215394271467528
    Same-spin CCSD correlation energy         =   -0.057891816940921
    CCSD correlation energy                   =   -0.273286088408448
      * CCSD total energy                     =  -76.333665637993334

            **************************
            *                        *
            *        CCTRIPLES       *
            *                        *
            **************************


    Wave function   =    CCSD_T
    Reference wfn   =      UHF

    Nuclear Rep. energy (wfn)                =    9.165040830895911
    SCF energy          (wfn)                =  -76.060379549585093
    Reference energy    (file100)            =  -76.060379549584880
    CCSD energy         (file100)            =   -0.273286088408448
    Total CCSD energy   (file100)            =  -76.333665637993334

    Number of ijk index combinations:
    Spin Case AAA:                                   4
    Spin Case BBB:                                   4
    Spin Case AAB:                                  24
    Spin Case ABB:                                  24
    AAA (T) energy                             =   -0.000193337143259
    BBB (T) energy                             =   -0.000193337143259
    AAB (T) energy                             =   -0.004135158657909
    ABB (T) energy                             =   -0.004135158657909
    (T) energy                                   =   -0.008656991602337
      * CCSD(T) total energy                     =  -76.342322629595671

Stephenergy -76.34232262959567
    Psi4 stopped on: Monday, 08 March 2021 09:46AM
    Psi4 wall time for execution: 0:00:21.15

*** Psi4 exiting successfully. Buy a developer a beer!
