
    -----------------------------------------------------------------------
          Psi4: An Open-Source Ab Initio Electronic Structure Package
                               Psi4 1.3.2 release

                         Git: Rev {HEAD} ecbda83 


    R. M. Parrish, L. A. Burns, D. G. A. Smith, A. C. Simmonett,
    A. E. DePrince III, E. G. Hohenstein, U. Bozkaya, A. Yu. Sokolov,
    R. Di Remigio, R. M. Richard, J. F. Gonthier, A. M. James,
    H. R. McAlexander, A. Kumar, M. Saitow, X. Wang, B. P. Pritchard,
    P. Verma, H. F. Schaefer III, K. Patkowski, R. A. King, E. F. Valeev,
    F. A. Evangelista, J. M. Turney, T. D. Crawford, and C. D. Sherrill,
    J. Chem. Theory Comput. 13(7) pp 3185--3197 (2017).
    (doi: 10.1021/acs.jctc.7b00174)


                         Additional Contributions by
    P. Kraus, H. Kruse, M. H. Lechner, M. C. Schieber, R. A. Shaw,
    A. Alenaizan, R. Galvelis, Z. L. Glick, S. Lehtola, and J. P. Misiewicz

    -----------------------------------------------------------------------


    Psi4 started on: Monday, 08 March 2021 05:52PM

    Process ID: 176217
    Host:       c5-13.compute.lan
    PSIDATADIR: /apps/gb/PSI4/1.3.2/share/psi4
    Memory:     500.0 MiB
    Threads:    12
    
  ==> Input File <==

--------------------------------------------------------------------------
memory 4 GB

molecule  {
0 3
O    0.000000000000    0.000000000000    1.270653145186
H    0.000000000000   -0.759829722200    1.859123165013
H   -0.000000000000    0.759829722200    1.859123165013
O    0.000000000000    0.000000000000   -1.504936466887
}
set {
basis aug-cc-pvtz
reference uhf
e_convergence 10
scf_type pk
freeze_core true
}

set ccenergy {
e_convergence 10
r_convergence 10
}

e = energy('ccsd(t)')

print_out('Stephenergy {}'.format(e))

--------------------------------------------------------------------------

  Memory set to   3.725 GiB by Python driver.

*** tstart() called on c5-13.compute.lan
*** at Mon Mar  8 17:52:20 2021

   => Loading Basis Set <=

    Name: AUG-CC-PVTZ
    Role: ORBITAL
    Keyword: BASIS
    atoms 1, 4 entry O          line   327 file /apps/gb/PSI4/1.3.2/share/psi4/basis/aug-cc-pvtz.gbs 
    atoms 2-3  entry H          line    36 file /apps/gb/PSI4/1.3.2/share/psi4/basis/aug-cc-pvtz.gbs 


         ---------------------------------------------------------
                                   SCF
               by Justin Turney, Rob Parrish, Andy Simmonett
                          and Daniel G. A. Smith
                              UHF Reference
                       12 Threads,   3814 MiB Core
         ---------------------------------------------------------

  ==> Geometry <==

    Molecular point group: c2v
    Full point group: C2v

    Geometry (in Angstrom), charge = 0, multiplicity = 3:

       Center              X                  Y                   Z               Mass       
    ------------   -----------------  -----------------  -----------------  -----------------
         O           -0.000000000000     0.000000000000     1.270653145186    15.994914619570
         H            0.000000000000    -0.759829722200     1.859123165013     1.007825032230
         H           -0.000000000000     0.759829722200     1.859123165013     1.007825032230
         O           -0.000000000000     0.000000000000    -1.504936466887    15.994914619570

  Running in c2v symmetry.

  Rotational constants: A =     14.48601  B =      0.24425  C =      0.24020 [cm^-1]
  Rotational constants: A = 434279.67779  B =   7322.49407  C =   7201.07502 [MHz]
  Nuclear repulsion =   23.814966861438457

  Charge       = 0
  Multiplicity = 3
  Electrons    = 18
  Nalpha       = 10
  Nbeta        = 8

  ==> Algorithm <==

  SCF Algorithm Type is PK.
  DIIS enabled.
  MOM disabled.
  Fractional occupation disabled.
  Guess Type is SAD.
  Energy threshold   = 1.00e-10
  Density threshold  = 1.00e-08
  Integral threshold = 0.00e+00

  ==> Primary Basis <==

  Basis Set: AUG-CC-PVTZ
    Blend: AUG-CC-PVTZ
    Number of shells: 46
    Number of basis function: 138
    Number of Cartesian functions: 160
    Spherical Harmonics?: true
    Max angular momentum: 3

  ==> Pre-Iterations <==

   -------------------------------------------------------
    Irrep   Nso     Nmo     Nalpha   Nbeta   Ndocc  Nsocc
   -------------------------------------------------------
     A1        54      54       0       0       0       0
     A2        17      17       0       0       0       0
     B1        29      29       0       0       0       0
     B2        38      38       0       0       0       0
   -------------------------------------------------------
    Total     138     138      10       8       8       2
   -------------------------------------------------------

  ==> Integral Setup <==

  Using in-core PK algorithm.
   Calculation information:
      Number of atoms:                   4
      Number of AO shells:              46
      Number of primitives:             82
      Number of atomic orbitals:       160
      Number of basis functions:       138

      Integral cutoff                 1.00e-12
      Number of threads:                12

  Performing in-core PK
  Using 91996872 doubles for integral storage.
  We computed 909469 shell quartets total.
  Whereas there are 584821 unique shell quartets.
    55.51 percent of shell quartets recomputed by reordering.

  ==> DiskJK: Disk-Based J/K Matrices <==

    J tasked:                  Yes
    K tasked:                  Yes
    wK tasked:                  No
    Memory [MiB]:             2861
    Schwarz Cutoff:          1E-12

    OpenMP threads:             12

  Minimum eigenvalue in the overlap matrix is 3.2305703886E-04.
  Using Symmetric Orthogonalization.

  SCF Guess: Superposition of Atomic Densities via on-the-fly atomic UHF.

  ==> Iterations <==

                        Total Energy        Delta E     RMS |[F,P]|

   @UHF iter SAD:  -149.38192985295845   -1.49382e+02   0.00000e+00 
   @UHF iter   1:  -150.76998426260405   -1.38805e+00   6.69883e-03 DIIS
   @UHF iter   2:  -150.84074339963763   -7.07591e-02   4.25666e-03 DIIS
   @UHF iter   3:  -150.87203492732050   -3.12915e-02   5.58593e-04 DIIS
   @UHF iter   4:  -150.87340721589931   -1.37229e-03   1.71034e-04 DIIS
   @UHF iter   5:  -150.87354116156223   -1.33946e-04   6.98174e-05 DIIS
   @UHF iter   6:  -150.87357428218641   -3.31206e-05   2.08550e-05 DIIS
   @UHF iter   7:  -150.87357738525370   -3.10307e-06   5.35620e-06 DIIS
   @UHF iter   8:  -150.87357760963025   -2.24377e-07   1.48932e-06 DIIS
   @UHF iter   9:  -150.87357762651146   -1.68812e-08   3.68987e-07 DIIS
   @UHF iter  10:  -150.87357762760846   -1.09699e-09   1.77111e-07 DIIS
   @UHF iter  11:  -150.87357762794917   -3.40719e-10   6.90716e-08 DIIS
   @UHF iter  12:  -150.87357762800283   -5.36602e-11   1.48522e-08 DIIS
   @UHF iter  13:  -150.87357762800454   -1.70530e-12   4.45477e-09 DIIS
  Energy and wave function converged.


  ==> Post-Iterations <==

   @Spin Contamination Metric:   9.530130923E-03
   @S^2 Expected:                2.000000000E+00
   @S^2 Observed:                2.009530131E+00
   @S   Expected:                1.000000000E+00
   @S   Observed:                1.000000000E+00

    Orbital Energies [Eh]
    ---------------------

    Alpha Occupied:                                                       

       1A1   -20.684551     2A1   -20.571062     3A1    -1.393969  
       4A1    -1.355495     1B2    -0.719180     5A1    -0.688205  
       1B1    -0.685271     6A1    -0.586394     2B2    -0.586281  
       2B1    -0.513985  

    Alpha Virtual:                                                        

       7A1     0.029566     3B2     0.047670     8A1     0.118600  
       3B1     0.154014     9A1     0.159506     4B2     0.180295  
       5B2     0.186897     4B1     0.192727    10A1     0.197989  
       1A2     0.263685     6B2     0.264104    11A1     0.264736  
      12A1     0.314380     5B1     0.326821    13A1     0.376063  
       7B2     0.380332    14A1     0.450064     8B2     0.464441  
       9B2     0.600049     6B1     0.643528    15A1     0.647370  
       2A2     0.658161    16A1     0.666546    17A1     0.696014  
       3A2     0.721608    10B2     0.722485     7B1     0.767514  
      18A1     0.792868    19A1     0.818541     8B1     0.837784  
      20A1     0.861072     9B1     0.901244    11B2     0.918683  
       4A2     0.924739    12B2     0.946243    13B2     0.979665  
      21A1     0.989914    10B1     1.012500    22A1     1.046503  
      14B2     1.051499    11B1     1.122051     5A2     1.176759  
      23A1     1.191692    15B2     1.198655    16B2     1.326668  
      24A1     1.336283    25A1     1.443267     6A2     1.507472  
      12B1     1.594494    26A1     1.666656    27A1     1.812017  
      17B2     1.821776    18B2     1.977659    28A1     2.040756  
      13B1     2.047743    19B2     2.054035     7A2     2.056699  
      14B1     2.058901    29A1     2.079246    30A1     2.114883  
       8A2     2.118657    20B2     2.135124    31A1     2.140634  
      15B1     2.145082    32A1     2.252033    21B2     2.266957  
      16B1     2.303366     9A2     2.311990    17B1     2.433916  
      33A1     2.469788    22B2     2.481848    34A1     2.486223  
      35A1     2.695738    18B1     2.715880    23B2     2.720891  
      36A1     2.839683    24B2     2.862807    10A2     2.880378  
      25B2     3.691344    37A1     3.754590    11A2     4.013300  
      19B1     4.080022    20B1     4.099291    38A1     4.140847  
      26B2     4.183260    27B2     4.281347    21B1     4.290493  
      39A1     4.350963    12A2     4.381914    40A1     4.427970  
      22B1     4.451284    28B2     4.515162    41A1     4.788585  
      29B2     4.840417    30B2     5.141498    13A2     5.145784  
      31B2     5.249761    42A1     5.341682    23B1     5.517166  
      43A1     5.685686    44A1     6.198353    24B1     6.388880  
      45A1     6.408795    14A2     6.410100    32B2     6.423545  
      25B1     6.435470    33B2     6.485456    46A1     6.535614  
      34B2     6.581876    26B1     6.716140    27B1     6.902217  
      47A1     6.905494    15A2     6.924480    48A1     6.939398  
      35B2     6.985546    49A1     7.046485    28B1     7.135600  
      29B1     7.278360    16A2     7.306816    36B2     7.311338  
      17A2     7.352679    50A1     7.437502    51A1     7.543830  
      52A1     7.910669    37B2     7.916452    38B2     8.806550  
      53A1     8.859466    54A1    15.787316  

    Beta Occupied:                                                        

       1A1   -20.605686     2A1   -20.570601     3A1    -1.354811  
       4A1    -1.051163     1B2    -0.718853     5A1    -0.588111  
       1B1    -0.513327     2B2    -0.495701  

    Beta Virtual:                                                         

       6A1     0.029407     3B2     0.047751     2B1     0.086486  
       7A1     0.091917     8A1     0.140924     9A1     0.167049  
       3B1     0.170579     4B2     0.180920     5B2     0.190490  
      10A1     0.225535     4B1     0.253267     1A2     0.263688  
       6B2     0.264551    11A1     0.288380    12A1     0.316789  
       5B1     0.328123     7B2     0.380505    13A1     0.386376  
      14A1     0.451140     8B2     0.464636     9B2     0.601668  
      15A1     0.660461     6B1     0.667335     2A2     0.672586  
      16A1     0.673644    17A1     0.713245     3A2     0.722069  
      10B2     0.734696     7B1     0.778781    18A1     0.806146  
       8B1     0.846947    19A1     0.850757     4A2     0.925126  
      20A1     0.927999    11B2     0.936408    12B2     0.953333  
      13B2     0.983411     9B1     0.986596    21A1     0.997101  
      14B2     1.052600    22A1     1.052651    10B1     1.060372  
      11B1     1.138041     5A2     1.176955    23A1     1.193186  
      15B2     1.201371    16B2     1.329066    24A1     1.392898  
      25A1     1.482743     6A2     1.507888    12B1     1.596461  
      26A1     1.696736    27A1     1.817032    17B2     1.822109  
      18B2     1.979063    28A1     2.070311    13B1     2.070796  
      19B2     2.071458     7A2     2.081337    29A1     2.099616  
      14B1     2.100291    30A1     2.155827    20B2     2.180778  
       8A2     2.201883    31A1     2.207632    15B1     2.258135  
      32A1     2.308744     9A2     2.312122    21B2     2.318802  
      16B1     2.319222    17B1     2.441738    33A1     2.483238  
      22B2     2.484716    34A1     2.514389    35A1     2.703208  
      18B1     2.717576    23B2     2.721794    36A1     2.851731  
      24B2     2.862987    10A2     2.880411    25B2     3.692214  
      37A1     3.754727    11A2     4.013328    19B1     4.082403  
      38A1     4.173231    26B2     4.218847    20B1     4.259886  
      27B2     4.292239    21B1     4.294948    12A2     4.382019  
      39A1     4.426805    22B1     4.456404    40A1     4.467610  
      28B2     4.515239    41A1     4.799335    29B2     4.840571  
      30B2     5.141678    13A2     5.145857    31B2     5.250164  
      42A1     5.342324    23B1     5.517275    43A1     5.690187  
      44A1     6.200012    24B1     6.485577    14A2     6.486930  
      32B2     6.487731    45A1     6.493032    25B1     6.499202  
      33B2     6.521157    46A1     6.607288    34B2     6.609697  
      26B1     6.722958    47A1     6.954674    15A2     7.038033  
      48A1     7.041901    27B1     7.084796    35B2     7.097411  
      28B1     7.135994    49A1     7.173897    29B1     7.282482  
      16A2     7.307086    36B2     7.311522    17A2     7.353084  
      50A1     7.440270    51A1     7.544889    52A1     7.911226  
      37B2     7.916798    38B2     8.806919    53A1     8.938901  
      54A1    15.787632  

    Final Occupation by Irrep:
             A1    A2    B1    B2 
    DOCC [     5,    0,    1,    2 ]
    SOCC [     1,    0,    1,    0 ]

  @UHF Final Energy:  -150.87357762800454

   => Energetics <=

    Nuclear Repulsion Energy =             23.8149668614384566
    One-Electron Energy =                -255.6944439068527686
    Two-Electron Energy =                  81.0058994174097791
    Total Energy =                       -150.8735776280045400

  UHF NO Occupations:
  HONO-2 :    5 A1 1.9970493
  HONO-1 :    6 A1 1.0000000
  HONO-0 :    2 B1 1.0000000
  LUNO+0 :    7 A1 0.0029507
  LUNO+1 :    3 B2 0.0017948
  LUNO+2 :    8 A1 0.0000215
  LUNO+3 :    9 A1 0.0000024


Computation Completed


Properties will be evaluated at   0.000000,   0.000000,   0.000000 [a0]

Properties computed using the SCF density matrix

  Nuclear Dipole Moment: [e a0]
     X:    -0.0000      Y:     0.0000      Z:     3.4846

  Electronic Dipole Moment: [e a0]
     X:     0.0000      Y:     0.0000      Z:    -2.6490

  Dipole Moment: [e a0]
     X:    -0.0000      Y:     0.0000      Z:     0.8356     Total:     0.8356

  Dipole Moment: [D]
     X:    -0.0000      Y:     0.0000      Z:     2.1239     Total:     2.1239


*** tstop() called on c5-13.compute.lan at Mon Mar  8 17:52:25 2021
Module time:
	user time   =      46.51 seconds =       0.78 minutes
	system time =       1.08 seconds =       0.02 minutes
	total time  =          5 seconds =       0.08 minutes
Total time:
	user time   =      46.51 seconds =       0.78 minutes
	system time =       1.08 seconds =       0.02 minutes
	total time  =          5 seconds =       0.08 minutes
 MINTS: Wrapper to libmints.
   by Justin Turney

   Calculation information:
      Number of threads:                12
      Number of atoms:                   4
      Number of AO shells:              46
      Number of SO shells:              37
      Number of primitives:             82
      Number of atomic orbitals:       160
      Number of basis functions:       138

      Number of irreps:                  4
      Integral cutoff                 0.00e+00
      Number of functions per irrep: [  54   17   29   38 ]

 OEINTS: Overlap, kinetic, potential, dipole, and quadrupole integrals
         stored in file 35.

      Computing two-electron integrals...done
      Computed 11530378 non-zero two-electron integrals.
        Stored in file 33.


*** tstart() called on c5-13.compute.lan
*** at Mon Mar  8 17:52:27 2021


	Wfn Parameters:
	--------------------
	Wavefunction         = CCSD_T
	Number of irreps     = 4
	Number of MOs        = 138
	Number of active MOs = 136
	AO-Basis             = NONE
	Semicanonical        = false
	Reference            = UHF
	Print Level          = 1

	IRREP	# MOs	# FZDC	# DOCC	# SOCC	# VIRT	# FZVR
	-----	-----	------	------	------	------	------
	 A1	   54	    2	    3	    1	    48	    0
	 A2	   17	    0	    0	    0	    17	    0
	 B1	   29	    0	    1	    1	    27	    0
	 B2	   38	    0	    2	    0	    36	    0
	Transforming integrals...
	IWL integrals will be deleted.
	(OO|OO)...
	Presorting SO-basis two-electron integrals.
	Sorting File: SO Ints (nn|nn) nbuckets = 1
	Transforming the one-electron integrals and constructing Fock matrices
	Starting AA/AB first half-transformation.
	Sorting AA/AB half-transformed integrals.
	Starting BB first half-transformation.
	Sorting BB half-transformed integrals.
	First half integral transformation complete.
	Starting AA second half-transformation.
	Starting AB second half-transformation.
	Starting BB second half-transformation.
	Two-electron integral transformation complete.
	(OO|OV)...
	Starting AA second half-transformation.
	Starting AB second half-transformation.
	Starting BB second half-transformation.
	Two-electron integral transformation complete.
	(OO|VV)...
	Starting AA second half-transformation.
	Starting AB second half-transformation.
	Starting BB second half-transformation.
	Two-electron integral transformation complete.
	(OV|OO)...
	Starting AA/AB first half-transformation.
	Sorting AA/AB half-transformed integrals.
	Starting BB first half-transformation.
	Sorting BB half-transformed integrals.
	First half integral transformation complete.
	Starting AA second half-transformation.
	Starting AB second half-transformation.
	Starting BB second half-transformation.
	Two-electron integral transformation complete.
	(OV|OV)...
	Starting AA second half-transformation.
	Starting AB second half-transformation.
	Starting BB second half-transformation.
	Two-electron integral transformation complete.
	(OV|VV)...
	Starting AA second half-transformation.
	Starting AB second half-transformation.
	Starting BB second half-transformation.
	Two-electron integral transformation complete.
	(VV|OO)...
	Starting AA/AB first half-transformation.
	Sorting AA/AB half-transformed integrals.
	Starting BB first half-transformation.
	Sorting BB half-transformed integrals.
	First half integral transformation complete.
	Starting AA second half-transformation.
	Starting AB second half-transformation.
	Starting BB second half-transformation.
	Two-electron integral transformation complete.
	(VV|OV)...
	Starting AA second half-transformation.
	Starting AB second half-transformation.
	Starting BB second half-transformation.
	Two-electron integral transformation complete.
	(VV|VV)...
	Starting AA second half-transformation.
	Starting AB second half-transformation.
	Starting BB second half-transformation.
	Two-electron integral transformation complete.
	Frozen core energy     =   -126.36529863780751

	Size of irrep 0 of <AB|CD> integrals:      5.040 (MW) /     40.320 (MB)
	Size of irrep 1 of <AB|CD> integrals:      3.197 (MW) /     25.576 (MB)
	Size of irrep 2 of <AB|CD> integrals:      3.640 (MW) /     29.124 (MB)
	Size of irrep 3 of <AB|CD> integrals:      4.783 (MW) /     38.264 (MB)
	Total:                                    16.660 (MW) /    133.283 (MB)

	Size of irrep 0 of <ab|cd> integrals:      5.382 (MW) /     43.059 (MB)
	Size of irrep 1 of <ab|cd> integrals:      3.389 (MW) /     27.114 (MB)
	Size of irrep 2 of <ab|cd> integrals:      3.936 (MW) /     31.490 (MB)
	Size of irrep 3 of <ab|cd> integrals:      5.018 (MW) /     40.141 (MB)
	Total:                                    17.726 (MW) /    141.804 (MB)

	Size of irrep 0 of <Ab|Cd> integrals:     22.024 (MW) /    176.194 (MB)
	Size of irrep 1 of <Ab|Cd> integrals:     13.170 (MW) /    105.357 (MB)
	Size of irrep 2 of <Ab|Cd> integrals:     15.140 (MW) /    121.119 (MB)
	Size of irrep 3 of <Ab|Cd> integrals:     19.598 (MW) /    156.787 (MB)
	Total:                                    69.932 (MW) /    559.457 (MB)

	Size of irrep 0 of <IA|BC> integrals:      1.469 (MW) /     11.748 (MB)
	Size of irrep 1 of <IA|BC> integrals:      0.694 (MW) /      5.550 (MB)
	Size of irrep 2 of <IA|BC> integrals:      0.908 (MW) /      7.266 (MB)
	Size of irrep 3 of <IA|BC> integrals:      1.198 (MW) /      9.588 (MB)
	Total:                                     4.269 (MW) /     34.152 (MB)

	Size of irrep 0 of <ia|bc> integrals:      1.178 (MW) /      9.426 (MB)
	Size of irrep 1 of <ia|bc> integrals:      0.527 (MW) /      4.212 (MB)
	Size of irrep 2 of <ia|bc> integrals:      0.663 (MW) /      5.301 (MB)
	Size of irrep 3 of <ia|bc> integrals:      0.999 (MW) /      7.992 (MB)
	Total:                                     3.366 (MW) /     26.931 (MB)

	Size of irrep 0 of <Ia|Bc> integrals:      1.521 (MW) /     12.164 (MB)
	Size of irrep 1 of <Ia|Bc> integrals:      0.711 (MW) /      5.690 (MB)
	Size of irrep 2 of <Ia|Bc> integrals:      0.949 (MW) /      7.595 (MB)
	Size of irrep 3 of <Ia|Bc> integrals:      1.222 (MW) /      9.775 (MB)
	Total:                                     4.403 (MW) /     35.225 (MB)

	Size of irrep 0 of <iA|bC> integrals:      1.140 (MW) /      9.123 (MB)
	Size of irrep 1 of <iA|bC> integrals:      0.512 (MW) /      4.094 (MB)
	Size of irrep 2 of <iA|bC> integrals:      0.634 (MW) /      5.074 (MB)
	Size of irrep 3 of <iA|bC> integrals:      0.978 (MW) /      7.827 (MB)
	Total:                                     3.265 (MW) /     26.118 (MB)

	Size of irrep 0 of tIjAb amplitudes:       0.084 (MW) /      0.676 (MB)
	Size of irrep 1 of tIjAb amplitudes:       0.022 (MW) /      0.174 (MB)
	Size of irrep 2 of tIjAb amplitudes:       0.039 (MW) /      0.311 (MB)
	Size of irrep 3 of tIjAb amplitudes:       0.062 (MW) /      0.496 (MB)
	Total:                                     0.207 (MW) /      1.657 (MB)

	Nuclear Rep. energy          =     23.81496686143846
	SCF energy                   =   -150.87357762800454
	One-electron energy          =    -85.39574573348749
	Two-electron (AA) energy     =     10.36117194860724
	Two-electron (BB) energy     =      5.46579270368794
	Two-electron (AB) energy     =     21.24553522955568
	Two-electron energy          =     37.07249988185087
	Reference energy             =   -150.87357762800571

*** tstop() called on c5-13.compute.lan at Mon Mar  8 17:52:50 2021
Module time:
	user time   =      67.39 seconds =       1.12 minutes
	system time =      10.75 seconds =       0.18 minutes
	total time  =         23 seconds =       0.38 minutes
Total time:
	user time   =     119.51 seconds =       1.99 minutes
	system time =      12.24 seconds =       0.20 minutes
	total time  =         30 seconds =       0.50 minutes
            **************************
            *                        *
            *        CCENERGY        *
            *                        *
            **************************

    Nuclear Rep. energy (wfn)     =   23.814966861438457
    SCF energy          (wfn)     = -150.873577628004540
    Reference energy    (file100) = -150.873577628005705

    Input parameters:
    -----------------
    Wave function   =     CCSD_T
    Reference wfn   =     UHF
    Brueckner       =     No
    Memory (Mbytes) =     4000.0
    Maxiter         =     50
    R_Convergence   =     1.0e-10
    E_Convergence   =     1.0e-10
    Restart         =     Yes
    DIIS            =     Yes
    AO Basis        =     NONE
    ABCD            =     NEW
    Cache Level     =     2
    Cache Type      =     LRU
    Print Level     =     1
    Num. of threads =     12
    # Amps to Print =     10
    Print MP2 Amps? =     No
    Analyze T2 Amps =     No
    Print Pair Ener =     No
    Local CC        =     No
    SCS-MP2         =     False
    SCSN-MP2        =     False
    SCS-CCSD        =     False

MP2 correlation energy -0.4162206830027841
                Solving CC Amplitude Equations
                ------------------------------
  Iter             Energy              RMS        T1Diag      D1Diag    New D1Diag    D2Diag
  ----     ---------------------    ---------   ----------  ----------  ----------   --------
     0        -0.416220683002784    0.000e+00    0.000000    0.000000    0.000000    0.000000
     1        -0.427015660105152    5.694e-02    0.010571    0.000000    0.000000    0.000000
     2        -0.435106593017410    1.701e-02    0.011066    0.000000    0.000000    0.000000
     3        -0.437255491231956    8.764e-03    0.012986    0.000000    0.000000    0.000000
     4        -0.437129122377796    2.679e-03    0.013394    0.000000    0.000000    0.000000
     5        -0.437119640993487    1.393e-03    0.013586    0.000000    0.000000    0.000000
     6        -0.437148720944968    5.292e-04    0.013612    0.000000    0.000000    0.000000
     7        -0.437151694875469    2.144e-04    0.013606    0.000000    0.000000    0.000000
     8        -0.437152630551903    6.672e-05    0.013601    0.000000    0.000000    0.000000
     9        -0.437153316166558    2.383e-05    0.013601    0.000000    0.000000    0.000000
    10        -0.437152417320775    9.214e-06    0.013600    0.000000    0.000000    0.000000
    11        -0.437152582447741    3.994e-06    0.013600    0.000000    0.000000    0.000000
    12        -0.437152542784100    1.442e-06    0.013600    0.000000    0.000000    0.000000
    13        -0.437152550648782    7.288e-07    0.013600    0.000000    0.000000    0.000000
    14        -0.437152573169306    3.038e-07    0.013600    0.000000    0.000000    0.000000
    15        -0.437152574891262    1.107e-07    0.013600    0.000000    0.000000    0.000000
    16        -0.437152575461654    4.953e-08    0.013600    0.000000    0.000000    0.000000
    17        -0.437152576041195    1.909e-08    0.013600    0.000000    0.000000    0.000000
    18        -0.437152575900300    9.890e-09    0.013600    0.000000    0.000000    0.000000
    19        -0.437152575694228    3.909e-09    0.013600    0.000000    0.000000    0.000000
    20        -0.437152575683867    2.112e-09    0.013600    0.000000    0.000000    0.000000
    21        -0.437152575660767    8.074e-10    0.013600    0.000000    0.000000    0.000000
    22        -0.437152575659214    3.251e-10    0.013600    0.000000    0.000000    0.000000
    23        -0.437152575658252    1.687e-10    0.013600    0.000000    0.000000    0.000000
    24        -0.437152575658091    6.917e-11    0.013600    0.000000    0.000000    0.000000

    Iterations converged.


    Largest TIA Amplitudes:
              5  65        -0.0133199867
              5  67        -0.0111680145
              7  94         0.0103730148
              5  66        -0.0096999445
              4  65        -0.0074592426
              3   1         0.0074038788
              2   3         0.0072120480
              4  66         0.0071644427
              3   5        -0.0055851593
              3   6         0.0053976579

    Largest Tia Amplitudes:
              3  67        -0.0148143120
              2   2         0.0134202648
              3  69        -0.0107828437
              5  96         0.0079626074
              3  66        -0.0076573541
              2   1        -0.0068145052
              2   7         0.0056127840
              2   6        -0.0055613933
              1  25        -0.0054402391
              4 109         0.0053846326

    Largest TIJAB Amplitudes:
      7   4 100  71         0.0142767721
      7   4  55  23        -0.0135875576
      7   2 100  12        -0.0121444419
      4   2  71  12         0.0110319269
      6   5  50   9        -0.0086576551
      7   4  49  23         0.0082511411
      6   5  97  72        -0.0080751697
      7   4  94  71         0.0078522309
      7   4  55   8        -0.0076216519
      7   4 100  82        -0.0073562954

    Largest Tijab Amplitudes:
      5   1  66  56         0.0086755093
      5   1  66  50        -0.0085742621
      5   1  68  56         0.0081616339
      4   3  99  67        -0.0076417146
      5   1  68  50        -0.0074591248
      4   3  99  73        -0.0073218488
      4   2  99   2         0.0071725100
      4   2  99  12         0.0068584055
      4   2 100   9        -0.0067248781
      4   3  51  10        -0.0065604172

    Largest TIjAb Amplitudes:
      7   5 100 103        -0.0219312044
      6   4  97  99        -0.0217710724
      7   5 100 102         0.0187825923
      7   1  55  66        -0.0180654576
      7   5 100  96        -0.0170743342
      7   1  55  68        -0.0168471069
      4   1  23  66        -0.0167338138
      5   3  72  73        -0.0162564251
      4   1  23  68        -0.0155651317
      4   5  71 103         0.0145731770

    SCF energy       (wfn)                    = -150.873577628004540
    Reference energy (file100)                = -150.873577628005705

    Opposite-spin MP2 correlation energy      =   -0.314392439864414
    Same-spin MP2 correlation energy          =   -0.101828243138370
    MP2 correlation energy                    =   -0.416220683002784
      * MP2 total energy                      = -151.289798311008497

    Opposite-spin CCSD correlation energy     =   -0.342049627631016
    Same-spin CCSD correlation energy         =   -0.095102948027074
    CCSD correlation energy                   =   -0.437152575658091
      * CCSD total energy                     = -151.310730203663809

            **************************
            *                        *
            *        CCTRIPLES       *
            *                        *
            **************************


    Wave function   =    CCSD_T
    Reference wfn   =      UHF

    Nuclear Rep. energy (wfn)                =   23.814966861438457
    SCF energy          (wfn)                = -150.873577628004540
    Reference energy    (file100)            = -150.873577628005705
    CCSD energy         (file100)            =   -0.437152575658091
    Total CCSD energy   (file100)            = -151.310730203663809

    Number of ijk index combinations:
    Spin Case AAA:                                  56
    Spin Case BBB:                                  20
    Spin Case AAB:                                 168
    Spin Case ABB:                                 120
    AAA (T) energy                             =   -0.000395617158482
    BBB (T) energy                             =   -0.000202037328610
    AAB (T) energy                             =   -0.006706799550764
    ABB (T) energy                             =   -0.004981994986350
    (T) energy                                   =   -0.012286449024206
      * CCSD(T) total energy                     = -151.323016652688011

Stephenergy -151.323016652688
    Psi4 stopped on: Monday, 08 March 2021 05:53PM
    Psi4 wall time for execution: 0:01:37.77

*** Psi4 exiting successfully. Buy a developer a beer!
