
    -----------------------------------------------------------------------
          Psi4: An Open-Source Ab Initio Electronic Structure Package
                               Psi4 1.3.2 release

                         Git: Rev {HEAD} ecbda83 


    R. M. Parrish, L. A. Burns, D. G. A. Smith, A. C. Simmonett,
    A. E. DePrince III, E. G. Hohenstein, U. Bozkaya, A. Yu. Sokolov,
    R. Di Remigio, R. M. Richard, J. F. Gonthier, A. M. James,
    H. R. McAlexander, A. Kumar, M. Saitow, X. Wang, B. P. Pritchard,
    P. Verma, H. F. Schaefer III, K. Patkowski, R. A. King, E. F. Valeev,
    F. A. Evangelista, J. M. Turney, T. D. Crawford, and C. D. Sherrill,
    J. Chem. Theory Comput. 13(7) pp 3185--3197 (2017).
    (doi: 10.1021/acs.jctc.7b00174)


                         Additional Contributions by
    P. Kraus, H. Kruse, M. H. Lechner, M. C. Schieber, R. A. Shaw,
    A. Alenaizan, R. Galvelis, Z. L. Glick, S. Lehtola, and J. P. Misiewicz

    -----------------------------------------------------------------------


    Psi4 started on: Wednesday, 10 March 2021 10:57AM

    Process ID: 35172
    Host:       d2-16.compute.lan
    PSIDATADIR: /apps/gb/PSI4/1.3.2/share/psi4
    Memory:     500.0 MiB
    Threads:    12
    
  ==> Input File <==

--------------------------------------------------------------------------
memory 4 GB

molecule  {
0 3
O   -1.504262781504   -0.001191536185    0.000000000000
H   -0.554379148204    0.156621815115    0.000000000000
H   -1.892076524420    0.876541024387    0.000000000000
O    1.658411729827   -0.063907115279    0.000000000000
}
set {
basis aug-cc-pvtz
reference uhf
e_convergence 10
scf_type pk
freeze_core true
}

set ccenergy {
e_convergence 10
r_convergence 10
}

e = energy('ccsd(t)')

print_out('Stephenergy {}'.format(e))

--------------------------------------------------------------------------

  Memory set to   3.725 GiB by Python driver.

*** tstart() called on d2-16.compute.lan
*** at Wed Mar 10 10:57:13 2021

   => Loading Basis Set <=

    Name: AUG-CC-PVTZ
    Role: ORBITAL
    Keyword: BASIS
    atoms 1, 4 entry O          line   327 file /apps/gb/PSI4/1.3.2/share/psi4/basis/aug-cc-pvtz.gbs 
    atoms 2-3  entry H          line    36 file /apps/gb/PSI4/1.3.2/share/psi4/basis/aug-cc-pvtz.gbs 


         ---------------------------------------------------------
                                   SCF
               by Justin Turney, Rob Parrish, Andy Simmonett
                          and Daniel G. A. Smith
                              UHF Reference
                       12 Threads,   3814 MiB Core
         ---------------------------------------------------------

  ==> Geometry <==

    Molecular point group: cs
    Full point group: Cs

    Geometry (in Angstrom), charge = 0, multiplicity = 3:

       Center              X                  Y                   Z               Mass       
    ------------   -----------------  -----------------  -----------------  -----------------
         O           -1.504262781504    -0.001191536185     0.000000000000    15.994914619570
         H           -0.554379148204     0.156621815115     0.000000000000     1.007825032230
         H           -1.892076524420     0.876541024387     0.000000000000     1.007825032230
         O            1.658411729827    -0.063907115279     0.000000000000    15.994914619570

  Running in cs symmetry.

  Rotational constants: A =     23.29451  B =      0.20011  C =      0.19840 [cm^-1]
  Rotational constants: A = 698351.89931  B =   5999.05361  C =   5947.95885 [MHz]
  Nuclear repulsion =   22.919219705867139

  Charge       = 0
  Multiplicity = 3
  Electrons    = 18
  Nalpha       = 10
  Nbeta        = 8

  ==> Algorithm <==

  SCF Algorithm Type is PK.
  DIIS enabled.
  MOM disabled.
  Fractional occupation disabled.
  Guess Type is SAD.
  Energy threshold   = 1.00e-10
  Density threshold  = 1.00e-08
  Integral threshold = 0.00e+00

  ==> Primary Basis <==

  Basis Set: AUG-CC-PVTZ
    Blend: AUG-CC-PVTZ
    Number of shells: 46
    Number of basis function: 138
    Number of Cartesian functions: 160
    Spherical Harmonics?: true
    Max angular momentum: 3

  ==> Pre-Iterations <==

   -------------------------------------------------------
    Irrep   Nso     Nmo     Nalpha   Nbeta   Ndocc  Nsocc
   -------------------------------------------------------
     A'        92      92       0       0       0       0
     A"        46      46       0       0       0       0
   -------------------------------------------------------
    Total     138     138      10       8       8       2
   -------------------------------------------------------

  ==> Integral Setup <==

  Using in-core PK algorithm.
   Calculation information:
      Number of atoms:                   4
      Number of AO shells:              46
      Number of primitives:             82
      Number of atomic orbitals:       160
      Number of basis functions:       138

      Integral cutoff                 1.00e-12
      Number of threads:                12

  Performing in-core PK
  Using 91996872 doubles for integral storage.
  We computed 902021 shell quartets total.
  Whereas there are 584821 unique shell quartets.
    54.24 percent of shell quartets recomputed by reordering.

  ==> DiskJK: Disk-Based J/K Matrices <==

    J tasked:                  Yes
    K tasked:                  Yes
    wK tasked:                  No
    Memory [MiB]:             2861
    Schwarz Cutoff:          1E-12

    OpenMP threads:             12

  Minimum eigenvalue in the overlap matrix is 2.9432113163E-04.
  Using Symmetric Orthogonalization.

  SCF Guess: Superposition of Atomic Densities via on-the-fly atomic UHF.

  ==> Iterations <==

                        Total Energy        Delta E     RMS |[F,P]|

   @UHF iter SAD:  -149.40204313424601   -1.49402e+02   0.00000e+00 
   @UHF iter   1:  -150.76385110755479   -1.36181e+00   5.04997e-03 DIIS
   @UHF iter   2:  -150.83811505064401   -7.42639e-02   3.27642e-03 DIIS
   @UHF iter   3:  -150.87319764429293   -3.50826e-02   3.92922e-04 DIIS
   @UHF iter   4:  -150.87431089514939   -1.11325e-03   1.30608e-04 DIIS
   @UHF iter   5:  -150.87443773835810   -1.26843e-04   5.12007e-05 DIIS
   @UHF iter   6:  -150.87447205092320   -3.43126e-05   1.54481e-05 DIIS
   @UHF iter   7:  -150.87447591087818   -3.85995e-06   5.63893e-06 DIIS
   @UHF iter   8:  -150.87447679743639   -8.86558e-07   4.51005e-06 DIIS
   @UHF iter   9:  -150.87447755925712   -7.61821e-07   4.39524e-06 DIIS
   @UHF iter  10:  -150.87447874151164   -1.18225e-06   4.33602e-06 DIIS
   @UHF iter  11:  -150.87448563388665   -6.89238e-06   4.04233e-06 DIIS
   @UHF iter  12:  -150.87450313515296   -1.75013e-05   3.80827e-06 DIIS
   @UHF iter  13:  -150.87450474251881   -1.60737e-06   3.33881e-06 DIIS
   @UHF iter  14:  -150.87452245597657   -1.77135e-05   8.57395e-06 DIIS
   @UHF iter  15:  -150.87452238132363    7.46529e-08   6.38735e-06 DIIS
   @UHF iter  16:  -150.87452408544317   -1.70412e-06   6.38930e-06 DIIS
   @UHF iter  17:  -150.87452430878193   -2.23339e-07   2.76102e-06 DIIS
   @UHF iter  18:  -150.87452439070461   -8.19227e-08   1.19171e-06 DIIS
   @UHF iter  19:  -150.87452440247080   -1.17662e-08   1.04178e-07 DIIS
   @UHF iter  20:  -150.87452440239977    7.10259e-11   1.61615e-07 DIIS
   @UHF iter  21:  -150.87452440254009   -1.40318e-10   5.23251e-09 DIIS
   @UHF iter  22:  -150.87452440254174   -1.64846e-12   9.76559e-10 DIIS
  Energy and wave function converged.


  ==> Post-Iterations <==

   @Spin Contamination Metric:   9.373361710E-03
   @S^2 Expected:                2.000000000E+00
   @S^2 Observed:                2.009373362E+00
   @S   Expected:                1.000000000E+00
   @S   Observed:                1.000000000E+00

    Orbital Energies [Eh]
    ---------------------

    Alpha Occupied:                                                       

       1Ap   -20.733063     2Ap   -20.558651     3Ap    -1.442395  
       4Ap    -1.343451     5Ap    -0.733176     1App   -0.732789  
       6Ap    -0.710479     7Ap    -0.634489     8Ap    -0.575314  
       2App   -0.502003  

    Alpha Virtual:                                                        

       9Ap     0.034220    10Ap     0.053483    11Ap     0.128166  
       3App    0.132923    12Ap     0.148141    13Ap     0.160819  
      14Ap     0.183963     4App    0.186800    15Ap     0.214129  
      16Ap     0.241994    17Ap     0.264467     5App    0.286488  
      18Ap     0.303869     6App    0.320585    19Ap     0.364398  
      20Ap     0.406441    21Ap     0.460825    22Ap     0.568522  
       7App    0.602637    23Ap     0.608713    24Ap     0.627140  
      25Ap     0.682171     8App    0.709568    26Ap     0.714630  
       9App    0.736643    10App    0.748775    27Ap     0.750834  
      28Ap     0.811785    11App    0.826044    29Ap     0.837313  
      12App    0.890963    30Ap     0.892168    31Ap     0.922735  
      32Ap     0.945341    13App    0.947376    33Ap     0.951536  
      14App    0.972078    34Ap     0.978565    35Ap     1.043914  
      36Ap     1.135771    15App    1.154100    37Ap     1.170003  
      38Ap     1.185173    39Ap     1.261351    16App    1.294974  
      40Ap     1.316459    17App    1.527766    41Ap     1.586208  
      18App    1.598152    42Ap     1.716091    43Ap     1.810036  
      44Ap     1.843499    45Ap     1.977622    19App    1.977733  
      46Ap     1.979514    20App    2.013244    47Ap     2.018100  
      21App    2.048579    48Ap     2.061454    22App    2.122616  
      49Ap     2.153290    50Ap     2.176048    23App    2.212655  
      24App    2.303241    51Ap     2.310517    52Ap     2.339089  
      53Ap     2.414876    25App    2.441667    54Ap     2.460068  
      55Ap     2.490616    26App    2.526816    56Ap     2.629375  
      57Ap     2.709456    27App    2.727170    58Ap     2.735506  
      59Ap     2.861094    60Ap     2.932162    28App    2.943997  
      61Ap     3.698364    62Ap     3.891502    29App    4.037148  
      30App    4.063246    63Ap     4.074216    31App    4.178473  
      64Ap     4.208487    65Ap     4.267015    32App    4.301445  
      33App    4.391547    66Ap     4.406724    34App    4.430753  
      67Ap     4.445815    68Ap     4.603483    69Ap     4.781382  
      70Ap     4.961326    35App    5.157591    71Ap     5.174754  
      72Ap     5.298767    73Ap     5.393319    36App    5.528673  
      74Ap     5.691043    75Ap     6.191049    37App    6.312373  
      76Ap     6.312404    38App    6.375551    77Ap     6.378220  
      39App    6.518192    78Ap     6.519470    79Ap     6.559129  
      80Ap     6.637151    40App    6.736084    81Ap     6.814538  
      41App    6.820052    82Ap     6.924133    42App    6.936866  
      83Ap     6.962038    84Ap     7.051030    43App    7.149062  
      44App    7.273121    85Ap     7.326686    45App    7.328033  
      86Ap     7.364393    46App    7.435023    87Ap     7.648779  
      88Ap     7.945248    89Ap     7.965031    90Ap     8.815613  
      91Ap     9.516961    92Ap    16.327452  

    Beta Occupied:                                                        

       1Ap   -20.654278     2Ap   -20.558781     3Ap    -1.344023  
       4Ap    -1.099929     5Ap    -0.709702     6Ap    -0.580298  
       7Ap    -0.541234     1App   -0.502047  

    Beta Virtual:                                                         

       8Ap     0.034375     2App    0.049364     9Ap     0.049616  
      10Ap     0.055188    11Ap     0.143817    12Ap     0.152977  
       3App    0.161217    13Ap     0.178148    14Ap     0.207814  
      15Ap     0.225465     4App    0.227188    16Ap     0.250729  
      17Ap     0.265719     5App    0.286696    18Ap     0.305999  
       6App    0.324324    19Ap     0.368294    20Ap     0.417381  
      21Ap     0.462077    22Ap     0.572103    23Ap     0.627861  
       7App    0.635033    24Ap     0.640499    25Ap     0.686976  
      26Ap     0.715288     8App    0.721640     9App    0.739812  
      10App    0.750432    27Ap     0.767384    28Ap     0.818145  
      29Ap     0.868382    11App    0.869187    30Ap     0.920017  
      12App    0.941924    31Ap     0.941949    13App    0.949546  
      32Ap     0.952894    33Ap     0.969853    34Ap     1.017792  
      14App    1.020312    35Ap     1.046091    15App    1.157267  
      36Ap     1.163719    37Ap     1.173243    38Ap     1.216252  
      39Ap     1.264424    16App    1.305564    40Ap     1.325236  
      17App    1.528495    41Ap     1.588454    18App    1.599574  
      42Ap     1.742308    43Ap     1.815658    44Ap     1.854068  
      45Ap     1.987671    46Ap     2.015694    19App    2.015705  
      20App    2.053886    47Ap     2.066071    21App    2.170770  
      48Ap     2.176308    22App    2.179646    49Ap     2.194131  
      50Ap     2.244779    23App    2.249954    24App    2.306612  
      51Ap     2.315995    52Ap     2.361696    53Ap     2.419385  
      25App    2.444373    54Ap     2.460843    55Ap     2.496930  
      26App    2.535263    56Ap     2.636555    57Ap     2.726278  
      27App    2.728491    58Ap     2.739158    59Ap     2.862910  
      60Ap     2.936598    28App    2.944624    61Ap     3.699049  
      62Ap     3.893865    29App    4.040264    30App    4.147200  
      63Ap     4.193211    64Ap     4.244159    31App    4.262698  
      65Ap     4.277936    32App    4.301508    33App    4.391617  
      66Ap     4.410401    34App    4.431415    67Ap     4.490264  
      68Ap     4.605950    69Ap     4.783058    70Ap     4.963283  
      35App    5.157578    71Ap     5.175049    72Ap     5.299013  
      73Ap     5.394525    36App    5.528732    74Ap     5.691392  
      75Ap     6.192304    76Ap     6.421222    37App    6.421227  
      38App    6.450745    77Ap     6.453413    78Ap     6.534126  
      39App    6.572078    79Ap     6.600381    80Ap     6.682094  
      40App    6.742022    81Ap     6.926589    41App    7.005130  
      82Ap     7.006846    42App    7.046090    83Ap     7.068391  
      84Ap     7.130753    43App    7.151596    44App    7.273399  
      85Ap     7.327011    45App    7.328707    86Ap     7.365161  
      46App    7.435433    87Ap     7.649606    88Ap     7.946202  
      89Ap     7.965451    90Ap     8.817194    91Ap     9.591936  
      92Ap    16.327718  

    Final Occupation by Irrep:
             Ap   App 
    DOCC [     7,    1 ]
    SOCC [     1,    1 ]

  @UHF Final Energy:  -150.87452440254174

   => Energetics <=

    Nuclear Repulsion Energy =             22.9192197058671390
    One-Electron Energy =                -253.6313844227331913
    Two-Electron Energy =                  79.8376403143243039
    Total Energy =                       -150.8745244025417378

  UHF NO Occupations:
  HONO-2 :    7 Ap 1.9970282
  HONO-1 :    2App 1.0000000
  HONO-0 :    8 Ap 1.0000000
  LUNO+0 :    9 Ap 0.0029718
  LUNO+1 :   10 Ap 0.0017159
  LUNO+2 :   11 Ap 0.0000024
  LUNO+3 :   12 Ap 0.0000017


Computation Completed


Properties will be evaluated at   0.000000,   0.000000,   0.000000 [a0]

Properties computed using the SCF density matrix

  Nuclear Dipole Moment: [e a0]
     X:    -2.2927      Y:     0.9682      Z:     0.0000

  Electronic Dipole Moment: [e a0]
     X:     2.7566      Y:    -0.2933      Z:     0.0000

  Dipole Moment: [e a0]
     X:     0.4639      Y:     0.6749      Z:     0.0000     Total:     0.8190

  Dipole Moment: [D]
     X:     1.1791      Y:     1.7154      Z:     0.0000     Total:     2.0816


*** tstop() called on d2-16.compute.lan at Wed Mar 10 10:57:18 2021
Module time:
	user time   =      54.10 seconds =       0.90 minutes
	system time =       2.45 seconds =       0.04 minutes
	total time  =          5 seconds =       0.08 minutes
Total time:
	user time   =      54.10 seconds =       0.90 minutes
	system time =       2.45 seconds =       0.04 minutes
	total time  =          5 seconds =       0.08 minutes
 MINTS: Wrapper to libmints.
   by Justin Turney

   Calculation information:
      Number of threads:                12
      Number of atoms:                   4
      Number of AO shells:              46
      Number of SO shells:              46
      Number of primitives:             82
      Number of atomic orbitals:       160
      Number of basis functions:       138

      Number of irreps:                  2
      Integral cutoff                 0.00e+00
      Number of functions per irrep: [  92   46 ]

 OEINTS: Overlap, kinetic, potential, dipole, and quadrupole integrals
         stored in file 35.

      Computing two-electron integrals...done
      Computed 22919408 non-zero two-electron integrals.
        Stored in file 33.


*** tstart() called on d2-16.compute.lan
*** at Wed Mar 10 10:57:23 2021


	Wfn Parameters:
	--------------------
	Wavefunction         = CCSD_T
	Number of irreps     = 2
	Number of MOs        = 138
	Number of active MOs = 136
	AO-Basis             = NONE
	Semicanonical        = false
	Reference            = UHF
	Print Level          = 1

	IRREP	# MOs	# FZDC	# DOCC	# SOCC	# VIRT	# FZVR
	-----	-----	------	------	------	------	------
	 Ap	   92	    2	    5	    1	    84	    0
	 App	   46	    0	    1	    1	    44	    0
	Transforming integrals...
	IWL integrals will be deleted.
	(OO|OO)...
	Presorting SO-basis two-electron integrals.
	Sorting File: SO Ints (nn|nn) nbuckets = 1
	Transforming the one-electron integrals and constructing Fock matrices
	Starting AA/AB first half-transformation.
	Sorting AA/AB half-transformed integrals.
	Starting BB first half-transformation.
	Sorting BB half-transformed integrals.
	First half integral transformation complete.
	Starting AA second half-transformation.
	Starting AB second half-transformation.
	Starting BB second half-transformation.
	Two-electron integral transformation complete.
	(OO|OV)...
	Starting AA second half-transformation.
	Starting AB second half-transformation.
	Starting BB second half-transformation.
	Two-electron integral transformation complete.
	(OO|VV)...
	Starting AA second half-transformation.
	Starting AB second half-transformation.
	Starting BB second half-transformation.
	Two-electron integral transformation complete.
	(OV|OO)...
	Starting AA/AB first half-transformation.
	Sorting AA/AB half-transformed integrals.
	Starting BB first half-transformation.
	Sorting BB half-transformed integrals.
	First half integral transformation complete.
	Starting AA second half-transformation.
	Starting AB second half-transformation.
	Starting BB second half-transformation.
	Two-electron integral transformation complete.
	(OV|OV)...
	Starting AA second half-transformation.
	Starting AB second half-transformation.
	Starting BB second half-transformation.
	Two-electron integral transformation complete.
	(OV|VV)...
	Starting AA second half-transformation.
	Starting AB second half-transformation.
	Starting BB second half-transformation.
	Two-electron integral transformation complete.
	(VV|OO)...
	Starting AA/AB first half-transformation.
	Sorting AA/AB half-transformed integrals.
	Starting BB first half-transformation.
	Sorting BB half-transformed integrals.
	First half integral transformation complete.
	Starting AA second half-transformation.
	Starting AB second half-transformation.
	Starting BB second half-transformation.
	Two-electron integral transformation complete.
	(VV|OV)...
	Starting AA second half-transformation.
	Starting AB second half-transformation.
	Starting BB second half-transformation.
	Two-electron integral transformation complete.
	(VV|VV)...
	Starting AA second half-transformation.
	Starting AB second half-transformation.
	Starting BB second half-transformation.
	Two-electron integral transformation complete.
	Frozen core energy     =   -125.86111282841163

	Size of irrep 0 of <AB|CD> integrals:     19.643 (MW) /    157.141 (MB)
	Size of irrep 1 of <AB|CD> integrals:     13.660 (MW) /    109.283 (MB)
	Total:                                    33.303 (MW) /    266.424 (MB)

	Size of irrep 0 of <ab|cd> integrals:     20.794 (MW) /    166.349 (MB)
	Size of irrep 1 of <ab|cd> integrals:     14.631 (MW) /    117.045 (MB)
	Total:                                    35.424 (MW) /    283.394 (MB)

	Size of irrep 0 of <Ab|Cd> integrals:     83.174 (MW) /    665.395 (MB)
	Size of irrep 1 of <Ab|Cd> integrals:     56.550 (MW) /    452.403 (MB)
	Total:                                   139.725 (MW) /   1117.798 (MB)

	Size of irrep 0 of <IA|BC> integrals:      5.323 (MW) /     42.586 (MB)
	Size of irrep 1 of <IA|BC> integrals:      3.193 (MW) /     25.547 (MB)
	Total:                                     8.517 (MW) /     68.133 (MB)

	Size of irrep 0 of <ia|bc> integrals:      4.348 (MW) /     34.780 (MB)
	Size of irrep 1 of <ia|bc> integrals:      2.372 (MW) /     18.972 (MB)
	Total:                                     6.719 (MW) /     53.752 (MB)

	Size of irrep 0 of <Ia|Bc> integrals:      5.472 (MW) /     43.776 (MB)
	Size of irrep 1 of <Ia|Bc> integrals:      3.309 (MW) /     26.470 (MB)
	Total:                                     8.781 (MW) /     70.246 (MB)

	Size of irrep 0 of <iA|bC> integrals:      4.232 (MW) /     33.853 (MB)
	Size of irrep 1 of <iA|bC> integrals:      2.286 (MW) /     18.289 (MB)
	Total:                                     6.518 (MW) /     52.142 (MB)

	Size of irrep 0 of tIjAb amplitudes:       0.292 (MW) /      2.335 (MB)
	Size of irrep 1 of tIjAb amplitudes:       0.120 (MW) /      0.963 (MB)
	Total:                                     0.412 (MW) /      3.297 (MB)

	Nuclear Rep. energy          =     22.91921970586714
	SCF energy                   =   -150.87452440254174
	One-electron energy          =    -84.41393183037377
	Two-electron (AA) energy     =     10.13774385481628
	Two-electron (BB) energy     =      5.39322486572549
	Two-electron (AB) energy     =     20.95033182983393
	Two-electron energy          =     36.48130055037571
	Reference energy             =   -150.87452440254259

*** tstop() called on d2-16.compute.lan at Wed Mar 10 10:58:05 2021
Module time:
	user time   =     242.45 seconds =       4.04 minutes
	system time =      19.70 seconds =       0.33 minutes
	total time  =         42 seconds =       0.70 minutes
Total time:
	user time   =     303.94 seconds =       5.07 minutes
	system time =      23.04 seconds =       0.38 minutes
	total time  =         52 seconds =       0.87 minutes
            **************************
            *                        *
            *        CCENERGY        *
            *                        *
            **************************

    Nuclear Rep. energy (wfn)     =   22.919219705867139
    SCF energy          (wfn)     = -150.874524402541738
    Reference energy    (file100) = -150.874524402542590

    Input parameters:
    -----------------
    Wave function   =     CCSD_T
    Reference wfn   =     UHF
    Brueckner       =     No
    Memory (Mbytes) =     4000.0
    Maxiter         =     50
    R_Convergence   =     1.0e-10
    E_Convergence   =     1.0e-10
    Restart         =     Yes
    DIIS            =     Yes
    AO Basis        =     NONE
    ABCD            =     NEW
    Cache Level     =     2
    Cache Type      =     LRU
    Print Level     =     1
    Num. of threads =     12
    # Amps to Print =     10
    Print MP2 Amps? =     No
    Analyze T2 Amps =     No
    Print Pair Ener =     No
    Local CC        =     No
    SCS-MP2         =     False
    SCSN-MP2        =     False
    SCS-CCSD        =     False

MP2 correlation energy -0.4165601591343337
                Solving CC Amplitude Equations
                ------------------------------
  Iter             Energy              RMS        T1Diag      D1Diag    New D1Diag    D2Diag
  ----     ---------------------    ---------   ----------  ----------  ----------   --------
     0        -0.416560159134334    0.000e+00    0.000000    0.000000    0.000000    0.000000
     1        -0.427294708217469    5.684e-02    0.010544    0.000000    0.000000    0.000000
     2        -0.435376573949448    1.688e-02    0.011025    0.000000    0.000000    0.000000
     3        -0.437495251493053    8.566e-03    0.012894    0.000000    0.000000    0.000000
     4        -0.437369406123475    2.534e-03    0.013261    0.000000    0.000000    0.000000
     5        -0.437354980528075    1.320e-03    0.013417    0.000000    0.000000    0.000000
     6        -0.437382219682012    5.145e-04    0.013439    0.000000    0.000000    0.000000
     7        -0.437386847559277    2.643e-04    0.013433    0.000000    0.000000    0.000000
     8        -0.437387445802932    9.934e-05    0.013429    0.000000    0.000000    0.000000
     9        -0.437388813699302    7.408e-05    0.013430    0.000000    0.000000    0.000000
    10        -0.437387258760387    6.398e-05    0.013431    0.000000    0.000000    0.000000
    11        -0.437387405185872    6.114e-05    0.013432    0.000000    0.000000    0.000000
    12        -0.437387117307931    5.945e-05    0.013434    0.000000    0.000000    0.000000
    13        -0.437387109958588    5.832e-05    0.013438    0.000000    0.000000    0.000000
    14        -0.437388281063920    5.644e-05    0.013456    0.000000    0.000000    0.000000
    15        -0.437388658291495    4.994e-05    0.013528    0.000000    0.000000    0.000000
    16        -0.437388434443562    3.340e-05    0.013667    0.000000    0.000000    0.000000
    17        -0.437388088366681    1.613e-05    0.013736    0.000000    0.000000    0.000000
    18        -0.437387959011644    7.565e-06    0.013753    0.000000    0.000000    0.000000
    19        -0.437388217881402    3.345e-06    0.013758    0.000000    0.000000    0.000000
    20        -0.437388329411270    1.499e-06    0.013758    0.000000    0.000000    0.000000
    21        -0.437388337407406    5.907e-07    0.013758    0.000000    0.000000    0.000000
    22        -0.437388338665096    2.807e-07    0.013758    0.000000    0.000000    0.000000
    23        -0.437388337547200    1.458e-07    0.013759    0.000000    0.000000    0.000000
    24        -0.437388336867950    6.052e-08    0.013759    0.000000    0.000000    0.000000
    25        -0.437388337828966    3.310e-08    0.013759    0.000000    0.000000    0.000000
    26        -0.437388338289252    2.572e-08    0.013759    0.000000    0.000000    0.000000
    27        -0.437388338448337    2.409e-08    0.013759    0.000000    0.000000    0.000000
    28        -0.437388338395400    2.334e-08    0.013759    0.000000    0.000000    0.000000
    29        -0.437388338230686    2.267e-08    0.013759    0.000000    0.000000    0.000000
    30        -0.437388337962544    2.158e-08    0.013759    0.000000    0.000000    0.000000
    31        -0.437388338161879    1.825e-08    0.013759    0.000000    0.000000    0.000000
    32        -0.437388338508143    9.557e-09    0.013759    0.000000    0.000000    0.000000
    33        -0.437388338610514    4.186e-09    0.013759    0.000000    0.000000    0.000000
    34        -0.437388338662472    1.707e-09    0.013759    0.000000    0.000000    0.000000
    35        -0.437388338669133    6.704e-10    0.013759    0.000000    0.000000    0.000000
    36        -0.437388338668879    2.873e-10    0.013759    0.000000    0.000000    0.000000
    37        -0.437388338666719    1.224e-10    0.013759    0.000000    0.000000    0.000000
    38        -0.437388338668191    5.806e-11    0.013759    0.000000    0.000000    0.000000

    Iterations converged.


    Largest TIA Amplitudes:
              7  87        -0.0121625878
              7  84        -0.0116094621
              7  85        -0.0094392649
              4   3         0.0090219894
              6  84        -0.0080660149
              5   9        -0.0076680416
              4  10         0.0070486114
              5   2        -0.0069790034
              2   2         0.0068881388
              7  86        -0.0063128278

    Largest Tia Amplitudes:
              5  86        -0.0122877864
              5  89        -0.0117446348
              5  85        -0.0098528971
              4   1        -0.0097378727
              3   3         0.0089600046
              3  10        -0.0070820517
              5  88        -0.0065075506
              5  87        -0.0060082120
              3  11         0.0058092464
              4   7        -0.0057012920

    Largest TIJAB Amplitudes:
      6   2  92  20        -0.0108806125
      6   2 101  38        -0.0097940586
      6   4  92  29        -0.0096421588
      6   2  92  21        -0.0088447666
      4   2  29  20        -0.0083702482
      4   2  41  40         0.0082776327
      6   2 102  38         0.0076512607
      4   2  29  21        -0.0073775423
      6   2  88  38         0.0072849204
      6   2 111  54        -0.0072553440

    Largest Tijab Amplitudes:
      4   1  42   1         0.0070344252
      4   1  91  85        -0.0067927340
      4   1  19   1         0.0064133178
      4   1 106  85        -0.0063155443
      5   2  94  13         0.0062629945
      5   2  89  13         0.0058696862
      5   2 100  17         0.0058200751
      5   2  92  17        -0.0057254108
      5   2  86  13         0.0057190053
      3   2  18  15        -0.0054435982

    Largest TIjAb Amplitudes:
      3   2  12  13         0.0182149489
      2   1  38   1        -0.0170611013
      6   1  38  85        -0.0165666591
      4   4  29  30         0.0163245450
      4   1 103  85        -0.0151320397
      2   1 101  85         0.0146581021
      2   1  88  85        -0.0143807715
      6   1 101   1        -0.0143794733
      4   1  41   1        -0.0143600474
      6   1  88   1         0.0141260771

    SCF energy       (wfn)                    = -150.874524402541738
    Reference energy (file100)                = -150.874524402542590

    Opposite-spin MP2 correlation energy      =   -0.314594072922237
    Same-spin MP2 correlation energy          =   -0.101966086212096
    MP2 correlation energy                    =   -0.416560159134334
      * MP2 total energy                      = -151.291084561676911

    Opposite-spin CCSD correlation energy     =   -0.342134419487356
    Same-spin CCSD correlation energy         =   -0.095253919180835
    CCSD correlation energy                   =   -0.437388338668191
      * CCSD total energy                     = -151.311912741210790

            **************************
            *                        *
            *        CCTRIPLES       *
            *                        *
            **************************


    Wave function   =    CCSD_T
    Reference wfn   =      UHF

    Nuclear Rep. energy (wfn)                =   22.919219705867139
    SCF energy          (wfn)                = -150.874524402541738
    Reference energy    (file100)            = -150.874524402542590
    CCSD energy         (file100)            =   -0.437388338668191
    Total CCSD energy   (file100)            = -151.311912741210790

    Number of ijk index combinations:
    Spin Case AAA:                                  56
    Spin Case BBB:                                  20
    Spin Case AAB:                                 168
    Spin Case ABB:                                 120
    AAA (T) energy                             =   -0.000399386847402
    BBB (T) energy                             =   -0.000202515329522
    AAB (T) energy                             =   -0.006739854878025
    ABB (T) energy                             =   -0.005006238690207
    (T) energy                                   =   -0.012347995745157
      * CCSD(T) total energy                     = -151.324260736955949

Stephenergy -151.32426073695595
    Psi4 stopped on: Wednesday, 10 March 2021 11:01AM
    Psi4 wall time for execution: 0:03:51.36

*** Psi4 exiting successfully. Buy a developer a beer!
