
Host: ss-sub1.gacrc.uga.edu

Timers On : Wed Mar 10 10:52:25 2021
Timers Off: Wed Mar 10 10:58:03 2021

Wall Time:      337.16 seconds

                                                       Time (seconds)
Module                                       User      System        Wall        Calls

--------------------------------------------------------------------------------------

**************************************************************************************
