
Host: ss-sub1.gacrc.uga.edu

Timers On : Thu Jan 28 13:55:01 2021
Timers Off: Thu Jan 28 13:55:09 2021

Wall Time:        8.63 seconds

                                                       Time (seconds)
Module                                       User      System        Wall        Calls

--------------------------------------------------------------------------------------

**************************************************************************************

Host: ss-sub2.gacrc.uga.edu

Timers On : Thu Jan 28 13:58:38 2021
Timers Off: Thu Jan 28 13:58:40 2021

Wall Time:        1.87 seconds

                                                       Time (seconds)
Module                                       User      System        Wall        Calls

--------------------------------------------------------------------------------------

**************************************************************************************

Host: ss-sub2.gacrc.uga.edu

Timers On : Thu Jan 28 14:00:03 2021
Timers Off: Thu Jan 28 14:00:04 2021

Wall Time:        0.92 seconds

                                                       Time (seconds)
Module                                       User      System        Wall        Calls

--------------------------------------------------------------------------------------

**************************************************************************************

Host: ss-sub2.gacrc.uga.edu

Timers On : Thu Jan 28 14:01:02 2021
Timers Off: Thu Jan 28 14:01:03 2021

Wall Time:        0.85 seconds

                                                       Time (seconds)
Module                                       User      System        Wall        Calls

--------------------------------------------------------------------------------------

**************************************************************************************

Host: ss-sub2.gacrc.uga.edu

Timers On : Thu Jan 28 14:05:00 2021
Timers Off: Thu Jan 28 14:05:01 2021

Wall Time:        1.01 seconds

                                                       Time (seconds)
Module                                       User      System        Wall        Calls

--------------------------------------------------------------------------------------

**************************************************************************************

Host: ss-sub2.gacrc.uga.edu

Timers On : Thu Jan 28 14:13:56 2021
Timers Off: Tue Feb  9 16:09:01 2021

Wall Time:  1043704.59 seconds

                                                       Time (seconds)
Module                                       User      System        Wall        Calls

--------------------------------------------------------------------------------------

**************************************************************************************
