
    -----------------------------------------------------------------------
          Psi4: An Open-Source Ab Initio Electronic Structure Package
                               Psi4 1.4a2.dev191 

                         Git: Rev {master} 0ab5346 


    R. M. Parrish, L. A. Burns, D. G. A. Smith, A. C. Simmonett,
    A. E. DePrince III, E. G. Hohenstein, U. Bozkaya, A. Yu. Sokolov,
    R. Di Remigio, R. M. Richard, J. F. Gonthier, A. M. James,
    H. R. McAlexander, A. Kumar, M. Saitow, X. Wang, B. P. Pritchard,
    P. Verma, H. F. Schaefer III, K. Patkowski, R. A. King, E. F. Valeev,
    F. A. Evangelista, J. M. Turney, T. D. Crawford, and C. D. Sherrill,
    J. Chem. Theory Comput. 13(7) pp 3185--3197 (2017).
    (doi: 10.1021/acs.jctc.7b00174)


                         Additional Contributions by
    P. Kraus, H. Kruse, M. H. Lechner, M. C. Schieber, R. A. Shaw,
    A. Alenaizan, R. Galvelis, Z. L. Glick, S. Lehtola, and J. P. Misiewicz

    -----------------------------------------------------------------------


    Psi4 started on: Tuesday, 23 February 2021 01:38PM

    Process ID: 239102
    Host:       c4-20.compute.lan
    PSIDATADIR: /apps/gb/PSI4/1.4.0/share/psi4
    Memory:     500.0 MiB
    Threads:    1
    
  ==> Input File <==

--------------------------------------------------------------------------
memory 10 GB
molecule {
0 2
O
H 1 R1
R1 = 0.9478992047
}
set {
basis aug-cc-pvtz
e_convergence 10
g_convergence gau_verytight
reference uhf
scf_type pk
mp2_type conv
}

set ccenergy {
e_convergence 10
r_convergence 10
}

optimize("ccsd(t)")

--------------------------------------------------------------------------

  Memory set to   9.313 GiB by Python driver.
gradient() will perform analytic gradient computation.

*** tstart() called on c4-20.compute.lan
*** at Tue Feb 23 13:38:34 2021

   => Loading Basis Set <=

    Name: AUG-CC-PVTZ
    Role: ORBITAL
    Keyword: BASIS
    atoms 1 entry O          line   331 file /apps/gb/PSI4/1.4.0/share/psi4/basis/aug-cc-pvtz.gbs 
    atoms 2 entry H          line    40 file /apps/gb/PSI4/1.4.0/share/psi4/basis/aug-cc-pvtz.gbs 


         ---------------------------------------------------------
                                   SCF
               by Justin Turney, Rob Parrish, Andy Simmonett
                          and Daniel G. A. Smith
                              UHF Reference
                        1 Threads,   9536 MiB Core
         ---------------------------------------------------------

  ==> Geometry <==

    Molecular point group: c2v
    Full point group: C_inf_v

    Geometry (in Angstrom), charge = 0, multiplicity = 2:

       Center              X                  Y                   Z               Mass       
    ------------   -----------------  -----------------  -----------------  -----------------
         O            0.000000000000     0.000000000000    -0.056186036256    15.994914619570
         H            0.000000000000     0.000000000000     0.891713168444     1.007825032230

  Running in c2v symmetry.

  Rotational constants: A = ************  B =     19.78901  C =     19.78901 [cm^-1]
  Rotational constants: A = ************  B = 593259.52428  C = 593259.52428 [MHz]
  Nuclear repulsion =    4.466105324668810

  Charge       = 0
  Multiplicity = 2
  Electrons    = 9
  Nalpha       = 5
  Nbeta        = 4

  ==> Algorithm <==

  SCF Algorithm Type is PK.
  DIIS enabled.
  MOM disabled.
  Fractional occupation disabled.
  Guess Type is SAD.
  Energy threshold   = 1.00e-10
  Density threshold  = 1.00e-10
  Integral threshold = 0.00e+00

  ==> Primary Basis <==

  Basis Set: AUG-CC-PVTZ
    Blend: AUG-CC-PVTZ
    Number of shells: 23
    Number of basis function: 69
    Number of Cartesian functions: 80
    Spherical Harmonics?: true
    Max angular momentum: 3

  ==> Pre-Iterations <==

   -------------------------------------------------------
    Irrep   Nso     Nmo     Nalpha   Nbeta   Ndocc  Nsocc
   -------------------------------------------------------
     A1        30      30       0       0       0       0
     A2         7       7       0       0       0       0
     B1        16      16       0       0       0       0
     B2        16      16       0       0       0       0
   -------------------------------------------------------
    Total      69      69       5       4       4       1
   -------------------------------------------------------

  ==> Integral Setup <==

  Using in-core PK algorithm.
   Calculation information:
      Number of atoms:                   2
      Number of AO shells:              23
      Number of primitives:             41
      Number of atomic orbitals:        80
      Number of basis functions:        69

      Integral cutoff                 1.00e-12
      Number of threads:                 1

  Performing in-core PK
  Using 5834640 doubles for integral storage.
  We computed 38226 shell quartets total.
  Whereas there are 38226 unique shell quartets.

  ==> DiskJK: Disk-Based J/K Matrices <==

    J tasked:                  Yes
    K tasked:                  Yes
    wK tasked:                  No
    Memory [MiB]:             7152
    Schwarz Cutoff:          1E-12

    OpenMP threads:              1

  Minimum eigenvalue in the overlap matrix is 4.7781918465E-04.
  Using Symmetric Orthogonalization.

  SCF Guess: Superposition of Atomic Densities via on-the-fly atomic UHF.

  ==> Iterations <==

                        Total Energy        Delta E     RMS |[F,P]|

   @UHF iter SAD:   -74.66140906434732   -7.46614e+01   0.00000e+00 
   @UHF iter   1:   -75.39842268115805   -7.37014e-01   6.03892e-03 DIIS
   @UHF iter   2:   -75.41870146548067   -2.02788e-02   2.34129e-03 DIIS
   @UHF iter   3:   -75.42142464014675   -2.72317e-03   6.76848e-04 DIIS
   @UHF iter   4:   -75.42186033484154   -4.35695e-04   2.05750e-04 DIIS
   @UHF iter   5:   -75.42192994199266   -6.96072e-05   9.04488e-05 DIIS
   @UHF iter   6:   -75.42194851316724   -1.85712e-05   3.12303e-05 DIIS
   @UHF iter   7:   -75.42195122066113   -2.70749e-06   1.01037e-05 DIIS
   @UHF iter   8:   -75.42195150935274   -2.88692e-07   2.12677e-06 DIIS
   @UHF iter   9:   -75.42195151876574   -9.41300e-09   6.86428e-07 DIIS
   @UHF iter  10:   -75.42195151985223   -1.08649e-09   9.86729e-08 DIIS
   @UHF iter  11:   -75.42195151987258   -2.03499e-11   1.37080e-08 DIIS
   @UHF iter  12:   -75.42195151987293   -3.55271e-13   3.07230e-09 DIIS
   @UHF iter  13:   -75.42195151987286    7.10543e-14   7.88849e-10 DIIS
   @UHF iter  14:   -75.42195151987295   -8.52651e-14   1.86283e-10 DIIS
   @UHF iter  15:   -75.42195151987283    1.13687e-13   2.63022e-11 DIIS
  Energy and wave function converged.


  ==> Post-Iterations <==

   @Spin Contamination Metric:   6.809872207E-03
   @S^2 Expected:                7.500000000E-01
   @S^2 Observed:                7.568098722E-01
   @S   Expected:                5.000000000E-01
   @S   Observed:                5.000000000E-01

    Orbital Energies [Eh]
    ---------------------

    Alpha Occupied:                                                       

       1A1   -20.639264     2A1    -1.396702     3A1    -0.689268  
       1B1    -0.659509     1B2    -0.562687  

    Alpha Virtual:                                                        

       4A1     0.030098     5A1     0.136580     2B1     0.152270  
       2B2     0.161512     6A1     0.184876     7A1     0.263548  
       3B1     0.269429     3B2     0.276039     8A1     0.430795  
       9A1     0.631304     1A2     0.638807    10A1     0.652012  
       4B1     0.714005     4B2     0.728763     5B1     0.851035  
       5B2     0.878509    11A1     0.879663    12A1     0.921315  
       2A2     0.939803    13A1     0.940851     6B1     0.984313  
      14A1     1.008163     6B2     1.010559     7B1     1.506786  
       7B2     1.526749    15A1     1.687640     8B1     2.042349  
       8B2     2.042369    16A1     2.054904     3A2     2.097322  
      17A1     2.098124     9B1     2.257642     9B2     2.294160  
      18A1     2.326238     4A2     2.327539    19A1     2.421748  
      20A1     2.504667    10B1     2.726948    10B2     2.766482  
      21A1     3.610069    11B1     4.035796     5A2     4.048727  
      22A1     4.048996    11B2     4.091796    12B1     4.303973  
      12B2     4.318104    23A1     4.663052    24A1     5.177337  
      13B1     5.316339    13B2     5.355767    25A1     6.123786  
      14B1     6.430713    14B2     6.430736     6A2     6.601896  
      26A1     6.603586     7A2     6.965368    27A1     6.965484  
      15B1     7.136474    15B2     7.194240    16B1     7.210554  
      16B2     7.266523    28A1     7.431789    29A1     7.737256  
      30A1    13.313604  

    Beta Occupied:                                                        

       1A1   -20.599784     2A1    -1.239864     3A1    -0.644948  
       1B2    -0.514840  

    Beta Virtual:                                                         

       4A1     0.031193     1B1     0.062741     5A1     0.138910  
       2B2     0.163670     6A1     0.189115     2B1     0.208872  
       7A1     0.266686     3B2     0.276060     3B1     0.290815  
       8A1     0.440795     9A1     0.649080     1A2     0.655579  
      10A1     0.657323     4B2     0.727054     4B1     0.730787  
      11A1     0.884841     5B2     0.885425     5B1     0.912106  
      12A1     0.931631     2A2     0.941852    13A1     0.942406  
       6B2     1.018104    14A1     1.019506     6B1     1.059435  
       7B2     1.526822     7B1     1.533482    15A1     1.706579  
       8B2     2.061450     8B1     2.061453    16A1     2.076469  
       3A2     2.170825    17A1     2.172826     9B2     2.298141  
       9B1     2.302015    18A1     2.343072     4A2     2.343674  
      19A1     2.437432    20A1     2.519400    10B1     2.772445  
      10B2     2.773506    21A1     3.616243     5A2     4.051907  
      22A1     4.051940    11B2     4.109285    11B1     4.144562  
      12B1     4.313154    12B2     4.315671    23A1     4.673001  
      24A1     5.202119    13B1     5.357851    13B2     5.363184  
      25A1     6.147981    14B2     6.484972    14B1     6.484972  
       6A2     6.642500    26A1     6.642614     7A2     7.057260  
      27A1     7.057482    15B1     7.197166    15B2     7.206661  
      16B1     7.280214    16B2     7.282410    28A1     7.448669  
      29A1     7.765240    30A1    13.345977  

    Final Occupation by Irrep:
             A1    A2    B1    B2 
    DOCC [     3,    0,    0,    1 ]
    SOCC [     0,    0,    1,    0 ]

  @UHF Final Energy:   -75.42195151987283

   => Energetics <=

    Nuclear Repulsion Energy =              4.4661053246688098
    One-Electron Energy =                -112.8292469158351139
    Two-Electron Energy =                  32.9411900712934624
    Total Energy =                        -75.4219515198728487

  UHF NO Occupations:
  HONO-2 :    2 A1 1.9992993
  HONO-1 :    3 A1 1.9979034
  HONO-0 :    1 B1 1.0000000
  LUNO+0 :    4 A1 0.0020966
  LUNO+1 :    5 A1 0.0007007
  LUNO+2 :    2 B2 0.0006093
  LUNO+3 :    6 A1 0.0000011


Computation Completed


Properties will be evaluated at   0.000000,   0.000000,   0.000000 [a0]

Properties computed using the SCF density matrix

  Nuclear Dipole Moment: [e a0]
     X:     0.0000      Y:     0.0000      Z:     0.8357

  Electronic Dipole Moment: [e a0]
     X:     0.0000      Y:     0.0000      Z:    -0.1497

  Dipole Moment: [e a0]
     X:     0.0000      Y:     0.0000      Z:     0.6860     Total:     0.6860

  Dipole Moment: [D]
     X:     0.0000      Y:     0.0000      Z:     1.7436     Total:     1.7436


*** tstop() called on c4-20.compute.lan at Tue Feb 23 13:38:35 2021
Module time:
	user time   =       1.16 seconds =       0.02 minutes
	system time =       0.07 seconds =       0.00 minutes
	total time  =          1 seconds =       0.02 minutes
Total time:
	user time   =       1.16 seconds =       0.02 minutes
	system time =       0.07 seconds =       0.00 minutes
	total time  =          1 seconds =       0.02 minutes
 MINTS: Wrapper to libmints.
   by Justin Turney

   Calculation information:
      Number of threads:                 1
      Number of atoms:                   2
      Number of AO shells:              23
      Number of SO shells:              23
      Number of primitives:             41
      Number of atomic orbitals:        80
      Number of basis functions:        69

      Number of irreps:                  4
      Integral cutoff                 0.00e+00
      Number of functions per irrep: [  30    7   16   16 ]

 OEINTS: Overlap, kinetic, potential, dipole, and quadrupole integrals
         stored in file 35.

      Computing two-electron integrals...done
      Computed 673711 non-zero two-electron integrals.
        Stored in file 33.


*** tstart() called on c4-20.compute.lan
*** at Tue Feb 23 13:38:35 2021


	Wfn Parameters:
	--------------------
	Wavefunction         = CCSD_T
	Number of irreps     = 4
	Number of MOs        = 69
	Number of active MOs = 69
	AO-Basis             = NONE
	Semicanonical        = false
	Reference            = UHF
	Print Level          = 1

	IRREP	# MOs	# FZDC	# DOCC	# SOCC	# VIRT	# FZVR
	-----	-----	------	------	------	------	------
	 A1	   30	    0	    3	    0	    27	    0
	 A2	   7	    0	    0	    0	    7	    0
	 B1	   16	    0	    0	    1	    15	    0
	 B2	   16	    0	    1	    0	    15	    0
	Transforming integrals...
	IWL integrals will be deleted.
	(OO|OO)...
	Presorting SO-basis two-electron integrals.
	Sorting File: SO Ints (nn|nn) nbuckets = 1
	Transforming the one-electron integrals and constructing Fock matrices
	Starting AA/AB first half-transformation.
	Sorting AA/AB half-transformed integrals.
	Starting BB first half-transformation.
	Sorting BB half-transformed integrals.
	First half integral transformation complete.
	Starting AA second half-transformation.
	Starting AB second half-transformation.
	Starting BB second half-transformation.
	Two-electron integral transformation complete.
	(OO|OV)...
	Starting AA second half-transformation.
	Starting AB second half-transformation.
	Starting BB second half-transformation.
	Two-electron integral transformation complete.
	(OO|VV)...
	Starting AA second half-transformation.
	Starting AB second half-transformation.
	Starting BB second half-transformation.
	Two-electron integral transformation complete.
	(OV|OO)...
	Starting AA/AB first half-transformation.
	Sorting AA/AB half-transformed integrals.
	Starting BB first half-transformation.
	Sorting BB half-transformed integrals.
	First half integral transformation complete.
	Starting AA second half-transformation.
	Starting AB second half-transformation.
	Starting BB second half-transformation.
	Two-electron integral transformation complete.
	(OV|OV)...
	Starting AA second half-transformation.
	Starting AB second half-transformation.
	Starting BB second half-transformation.
	Two-electron integral transformation complete.
	(OV|VV)...
	Starting AA second half-transformation.
	Starting AB second half-transformation.
	Starting BB second half-transformation.
	Two-electron integral transformation complete.
	(VV|OO)...
	Starting AA/AB first half-transformation.
	Sorting AA/AB half-transformed integrals.
	Starting BB first half-transformation.
	Sorting BB half-transformed integrals.
	First half integral transformation complete.
	Starting AA second half-transformation.
	Starting AB second half-transformation.
	Starting BB second half-transformation.
	Two-electron integral transformation complete.
	(VV|OV)...
	Starting AA second half-transformation.
	Starting AB second half-transformation.
	Starting BB second half-transformation.
	Two-electron integral transformation complete.
	(VV|VV)...
	Starting AA second half-transformation.
	Starting AB second half-transformation.
	Starting BB second half-transformation.
	Two-electron integral transformation complete.
	Frozen core energy     =      0.00000000000000

	Size of irrep 0 of <AB|CD> integrals:      0.339 (MW) /      2.710 (MB)
	Size of irrep 1 of <AB|CD> integrals:      0.171 (MW) /      1.371 (MB)
	Size of irrep 2 of <AB|CD> integrals:      0.260 (MW) /      2.081 (MB)
	Size of irrep 3 of <AB|CD> integrals:      0.260 (MW) /      2.081 (MB)
	Total:                                     1.030 (MW) /      8.243 (MB)

	Size of irrep 0 of <ab|cd> integrals:      0.356 (MW) /      2.851 (MB)
	Size of irrep 1 of <ab|cd> integrals:      0.184 (MW) /      1.472 (MB)
	Size of irrep 2 of <ab|cd> integrals:      0.288 (MW) /      2.307 (MB)
	Size of irrep 3 of <ab|cd> integrals:      0.267 (MW) /      2.138 (MB)
	Total:                                     1.096 (MW) /      8.769 (MB)

	Size of irrep 0 of <Ab|Cd> integrals:      1.545 (MW) /     12.360 (MB)
	Size of irrep 1 of <Ab|Cd> integrals:      0.711 (MW) /      5.685 (MB)
	Size of irrep 2 of <Ab|Cd> integrals:      1.096 (MW) /      8.770 (MB)
	Size of irrep 3 of <Ab|Cd> integrals:      1.055 (MW) /      8.438 (MB)
	Total:                                     4.407 (MW) /     35.253 (MB)

	Size of irrep 0 of <IA|BC> integrals:      0.136 (MW) /      1.090 (MB)
	Size of irrep 1 of <IA|BC> integrals:      0.042 (MW) /      0.338 (MB)
	Size of irrep 2 of <IA|BC> integrals:      0.081 (MW) /      0.645 (MB)
	Size of irrep 3 of <IA|BC> integrals:      0.081 (MW) /      0.645 (MB)
	Total:                                     0.340 (MW) /      2.718 (MB)

	Size of irrep 0 of <ia|bc> integrals:      0.121 (MW) /      0.967 (MB)
	Size of irrep 1 of <ia|bc> integrals:      0.032 (MW) /      0.254 (MB)
	Size of irrep 2 of <ia|bc> integrals:      0.059 (MW) /      0.473 (MB)
	Size of irrep 3 of <ia|bc> integrals:      0.074 (MW) /      0.596 (MB)
	Total:                                     0.286 (MW) /      2.289 (MB)

	Size of irrep 0 of <Ia|Bc> integrals:      0.139 (MW) /      1.114 (MB)
	Size of irrep 1 of <Ia|Bc> integrals:      0.044 (MW) /      0.351 (MB)
	Size of irrep 2 of <Ia|Bc> integrals:      0.086 (MW) /      0.687 (MB)
	Size of irrep 3 of <Ia|Bc> integrals:      0.081 (MW) /      0.649 (MB)
	Total:                                     0.350 (MW) /      2.800 (MB)

	Size of irrep 0 of <iA|bC> integrals:      0.119 (MW) /      0.955 (MB)
	Size of irrep 1 of <iA|bC> integrals:      0.030 (MW) /      0.243 (MB)
	Size of irrep 2 of <iA|bC> integrals:      0.054 (MW) /      0.436 (MB)
	Size of irrep 3 of <iA|bC> integrals:      0.074 (MW) /      0.592 (MB)
	Total:                                     0.278 (MW) /      2.225 (MB)

	Size of irrep 0 of tIjAb amplitudes:       0.012 (MW) /      0.099 (MB)
	Size of irrep 1 of tIjAb amplitudes:       0.001 (MW) /      0.007 (MB)
	Size of irrep 2 of tIjAb amplitudes:       0.003 (MW) /      0.025 (MB)
	Size of irrep 3 of tIjAb amplitudes:       0.006 (MW) /      0.049 (MB)
	Total:                                     0.023 (MW) /      0.181 (MB)

	Nuclear Rep. energy          =      4.46610532466881
	SCF energy                   =    -75.42195151987283
	One-electron energy          =   -112.82924691664616
	Two-electron (AA) energy     =      7.75872280724360
	Two-electron (BB) energy     =      4.64833768183526
	Two-electron (AB) energy     =     20.53412958302556
	Two-electron energy          =     32.94119007210443
	Reference energy             =    -75.42195151987292

*** tstop() called on c4-20.compute.lan at Tue Feb 23 13:38:37 2021
Module time:
	user time   =       0.90 seconds =       0.01 minutes
	system time =       0.70 seconds =       0.01 minutes
	total time  =          2 seconds =       0.03 minutes
Total time:
	user time   =       2.25 seconds =       0.04 minutes
	system time =       0.80 seconds =       0.01 minutes
	total time  =          3 seconds =       0.05 minutes
            **************************
            *                        *
            *        CCENERGY        *
            *                        *
            **************************

    Nuclear Rep. energy (wfn)     =    4.466105324668810
    SCF energy          (wfn)     =  -75.421951519872835
    Reference energy    (file100) =  -75.421951519872920

    Input parameters:
    -----------------
    Wave function   =     CCSD_T
    Reference wfn   =     UHF
    Brueckner       =     No
    Memory (Mbytes) =     10000.0
    Maxiter         =     50
    R_Convergence   =     1.0e-10
    E_Convergence   =     1.0e-10
    Restart         =     Yes
    DIIS            =     Yes
    AO Basis        =     NONE
    ABCD            =     NEW
    Cache Level     =     2
    Cache Type      =     LRU
    Print Level     =     1
    Num. of threads =     1
    # Amps to Print =     10
    Print MP2 Amps? =     No
    Analyze T2 Amps =     No
    Print Pair Ener =     No
    Local CC        =     No
    SCS-MP2         =     False
    SCSN-MP2        =     False
    SCS-CCSD        =     False

MP2 correlation energy -0.2175656130380900
                Solving CC Amplitude Equations
                ------------------------------
  Iter             Energy              RMS        T1Diag      D1Diag    New D1Diag    D2Diag
  ----     ---------------------    ---------   ----------  ----------  ----------   --------
     0        -0.217565613038090    0.000e+00    0.000000    0.000000    0.000000    0.000000
     1        -0.225875506779825    3.728e-02    0.008940    0.000000    0.000000    0.000000
     2        -0.229871212992869    1.184e-02    0.010118    0.000000    0.000000    0.000000
     3        -0.230826131282857    5.905e-03    0.011749    0.000000    0.000000    0.000000
     4        -0.230739827452916    2.006e-03    0.012072    0.000000    0.000000    0.000000
     5        -0.230757211753143    8.714e-04    0.012140    0.000000    0.000000    0.000000
     6        -0.230774160426362    3.195e-04    0.012126    0.000000    0.000000    0.000000
     7        -0.230773992304595    1.000e-04    0.012111    0.000000    0.000000    0.000000
     8        -0.230774519683772    3.299e-05    0.012109    0.000000    0.000000    0.000000
     9        -0.230774424705380    1.079e-05    0.012109    0.000000    0.000000    0.000000
    10        -0.230774351664159    4.265e-06    0.012110    0.000000    0.000000    0.000000
    11        -0.230774422464633    1.609e-06    0.012110    0.000000    0.000000    0.000000
    12        -0.230774435029667    5.898e-07    0.012110    0.000000    0.000000    0.000000
    13        -0.230774448003302    2.243e-07    0.012110    0.000000    0.000000    0.000000
    14        -0.230774453109141    8.612e-08    0.012110    0.000000    0.000000    0.000000
    15        -0.230774453261560    3.638e-08    0.012110    0.000000    0.000000    0.000000
    16        -0.230774453303682    1.667e-08    0.012110    0.000000    0.000000    0.000000
    17        -0.230774453229005    7.567e-09    0.012110    0.000000    0.000000    0.000000
    18        -0.230774453314149    3.045e-09    0.012110    0.000000    0.000000    0.000000
    19        -0.230774453389774    1.216e-09    0.012110    0.000000    0.000000    0.000000
    20        -0.230774453407477    5.041e-10    0.012110    0.000000    0.000000    0.000000
    21        -0.230774453409933    2.166e-10    0.012110    0.000000    0.000000    0.000000
    22        -0.230774453409796    7.812e-11    0.012110    0.000000    0.000000    0.000000

    Iterations converged.


    Largest TIA Amplitudes:
              4  49        -0.0135417727
              3  34        -0.0134515932
              4  50        -0.0089740342
              3  35        -0.0086951384
              3  37        -0.0055040830
              2   3        -0.0054181816
              2   1         0.0050583484
              1   2        -0.0048467383
              4  52        -0.0046192997
              3  36        -0.0037169844

    Largest Tia Amplitudes:
              3  50        -0.0109197719
              3  51        -0.0082413673
              1   6        -0.0056468390
              1  13        -0.0055434286
              3  59         0.0047068068
              1   4         0.0040446742
              2   3        -0.0040400586
              2  19         0.0039543503
              3  52        -0.0038242895
              2  15         0.0038131766

    Largest TIJAB Amplitudes:
      4   3  29  13         0.0140000738
      4   3  52  37        -0.0119402494
      4   2  51   6         0.0102336339
      4   3  53  37        -0.0097313446
      3   2  37   8        -0.0096057911
      4   3  27  13         0.0090249844
      4   2  52   8        -0.0088704705
      3   2  36   5         0.0086508036
      4   3  49  37        -0.0086228424
      4   2  54   6         0.0082394263

    Largest Tijab Amplitudes:
      3   2  52   5         0.0111467309
      3   2  53   8        -0.0088421115
      3   2  55   5         0.0086601389
      3   1  34  27        -0.0078498270
      3   1  34  29         0.0077726459
      3   2  54   4        -0.0072467225
      3   2  54   8        -0.0072466025
      3   2  50   8        -0.0069015403
      2   1  37  34         0.0065995264
      3   2  50   4        -0.0064533717

    Largest TIjAb Amplitudes:
      4   3  52  53        -0.0196913710
      2   2   4   4        -0.0186106794
      4   3  52  54        -0.0179123170
      4   3  53  54        -0.0177149086
      3   1   5  34         0.0169301829
      2   2   8   8        -0.0166943509
      4   1  29  34         0.0165386089
      3   1  13  34        -0.0158768667
      4   3  53  53        -0.0158460670
      3   3  37  53        -0.0150466103

    SCF energy       (wfn)                    =  -75.421951519872835
    Reference energy (file100)                =  -75.421951519872920

    Opposite-spin MP2 correlation energy      =   -0.167021295002489
    Same-spin MP2 correlation energy          =   -0.050544318035601
    MP2 correlation energy                    =   -0.217565613038090
      * MP2 total energy                      =  -75.639517132911010

    Opposite-spin CCSD correlation energy     =   -0.182868449640460
    Same-spin CCSD correlation energy         =   -0.047906003769336
    CCSD correlation energy                   =   -0.230774453409796
      * CCSD total energy                     =  -75.652725973282713

            **************************
            *                        *
            *        CCTRIPLES       *
            *                        *
            **************************


    Wave function   =    CCSD_T
    Reference wfn   =      UHF

    Nuclear Rep. energy (wfn)                =    4.466105324668810
    SCF energy          (wfn)                =  -75.421951519872835
    Reference energy    (file100)            =  -75.421951519872920
    CCSD energy         (file100)            =   -0.230774453409796
    Total CCSD energy   (file100)            =  -75.652725973282713

    Number of ijk index combinations:
    Spin Case AAA:                                 125
    Spin Case BBB:                                  64
    Spin Case AAB:                                 100
    Spin Case ABB:                                  80

    Number of abc index combinations:
    Spin Case AAA:                              262144
    Spin Case BBB:                              274625
    Spin Case AAB:                              266240
    Spin Case ABB:                              270400

    Computing (T) contributions to CC density...
    AAA (T) energy                             =   -0.000204045867728
    BBB (T) energy                             =   -0.000041135179223
    AAB (T) energy                             =   -0.003444279695211
    ABB (T) energy                             =   -0.002211208322449
    (T) energy                                   =   -0.005900669064610
      * CCSD(T) total energy                     =  -75.658626642347329


			**************************
			*                        *
			*         CCHBAR         *
			*                        *
			**************************


			**************************
			*        CCLAMBDA        *
			**************************


	Nuclear Rep. energy (wfn)     =    4.466105324668810
	Reference           (wfn)     =                    2
	SCF energy          (wfn)     =  -75.658626642347329
	Reference energy    (CC_INFO) =  -75.421951519872920

	Input parameters:
	-----------------
	Maxiter           =     50
	Convergence       = 1.0e-07
	Restart           =     No
	Cache Level       =     2
	Model III         =     No
	DIIS              =     Yes
	AO Basis          =     No
	ABCD              =     NEW
	Local CC          =     No
	Parameters for left-handed eigenvectors:
	    Irr   Root  Ground-State?    EOM energy        R0
	  1   0     0        Yes       0.0000000000   1.0000000000
	Labels for eigenvector 1:
	LIA 0 -1, Lia 0 -1, LIJAB 0 -1, Lijab 0 -1, LIjAb 0 -1, 2LIjAb - LIjbA 0 -1
	Symmetry of left-hand state: B1
	Symmetry of left-hand eigenvector: A1

	          Solving Lambda Equations
	          ------------------------
	Iter     PseudoEnergy or Norm         RMS  
	----     ---------------------     --------
	   0        -0.230790063177222    0.000e+00
	   1        -0.237523552610927    2.225e-02
	   2        -0.237207296065535    4.379e-03
	   3        -0.237291016465378    1.362e-03
	   4        -0.237342470646064    7.220e-04
	   5        -0.237347559230490    2.632e-04
	   6        -0.237345717692902    8.326e-05
	   7        -0.237345486312496    2.797e-05
	   8        -0.237345395647550    8.654e-06
	   9        -0.237345469427835    2.866e-06
	  10        -0.237345482252339    1.078e-06
	  11        -0.237345473736219    3.950e-07
	  12        -0.237345475150416    1.278e-07
	  13        -0.237345475225165    5.054e-08

	Largest LIA Amplitudes:
	          4  49        -0.0106017500
	          3  34        -0.0101717030
	          4  50        -0.0067249889
	          3  35        -0.0065520804
	          2   3        -0.0037834934
	          3  37        -0.0035508900
	          2   1         0.0035402958
	          1   2        -0.0035398527
	          4  52        -0.0033362910
	          2  12        -0.0030092499

	Largest Lia Amplitudes:
	          3  50        -0.0072505862
	          1   6        -0.0056830916
	          3  51        -0.0055719613
	          1  13        -0.0054097513
	          1   4         0.0047904043
	          1  10         0.0041669191
	          3  59         0.0038529022
	          2  15         0.0035051062
	          2  10         0.0032999795
	          2  19         0.0032510078

	Largest LIJAB Amplitudes:
	  4   3  29  13         0.0142709782
	  4   3  52  37        -0.0131189671
	  4   2  51   6         0.0119557390
	  4   3  53  37        -0.0105244664
	  3   2  37   8        -0.0104664746
	  4   3  49  37        -0.0100692647
	  3   2  36   5         0.0100247560
	  4   2  52   8        -0.0097316682
	  4   3  27  13         0.0095166148
	  4   2  54   6         0.0090489569

	Largest Lijab Amplitudes:
	  3   2  52   5         0.0130073287
	  3   2  53   8        -0.0096591133
	  3   2  55   5         0.0094942087
	  3   1  34  27        -0.0090042458
	  3   1  34  29         0.0081751902
	  3   2  54   4        -0.0079280621
	  3   2  50   1         0.0078789633
	  3   2  50   8        -0.0078751671
	  3   2  54   8        -0.0077965544
	  3   2  50   4        -0.0076702884

	Largest LIjAb Amplitudes:
	  4   3  52  53        -0.0207099443
	  2   2   4   4        -0.0197639751
	  3   1   5  34         0.0188129809
	  4   3  52  54        -0.0186267586
	  4   3  53  54        -0.0182785784
	  2   2   8   8        -0.0172323724
	  4   1  29  34         0.0172064344
	  4   3  53  53        -0.0164562013
	  3   1  13  34        -0.0163882940
	  3   3  37  53        -0.0161410936

	Iterations converged.

	Overlap <L|e^T> =        0.94230966574

			**************************
			*                        *
			*        CCDENSITY       *
			*                        *
			**************************


	Input parameters:
	-----------------
	Wave function    = CCSD_T
	Reference wfn    =   UHF
	Dertype          = 1
	Tolerance        = 1.0e-14
	Cache Level      = 2
	AO Basis         = No
	OPDM Only        = No
	Relax OPDM       = Yes
	Compute Xi       = No
	Use Zeta         = No
	Xi connected     = Yes
	Compute NO       = No

	Nuclear Rep. energy (wfn)     =    4.466105324668810
	SCF energy          (wfn)     =  -75.658626642347329
	Reference energy    (file100) =  -75.421951519872920
	CCSD energy         (CC_INFO) =   -0.230774453409796
	(T) energy          (CC_INFO) =   -0.005900669064610
	Total CCSD(T) energy(CC_INFO) =  -75.658626642347329
	Number of States = 1

	Ground?  State     EOM Energy       R0
	  Yes     0 A1    0.0000000000   1.00000000
  Cartesian Displacement SALCs
  By SALC:
  Number of SALCs: 2, nirreps: A1
  Project out translations: False
  Project out rotations: False
	irrep = 0, ncomponent = 1
		0: atom 0, direction z, coef 1.000000
	irrep = 0, ncomponent = 1
		0: atom 1, direction z, coef 1.000000

  By Atomic Center:
  Number of atomic centers: 2
   Atomic Center 0:
	x component, size = 0
	y component, size = 0
	z component, size = 1
		0: salc 0, irrep 0, coef 1.000000
   Atomic Center 1:
	x component, size = 0
	y component, size = 0
	z component, size = 1
		0: salc 1, irrep 0, coef 1.000000

    Molecular point group: c2v
    Full point group: C_inf_v

    Geometry (in Bohr), charge = 0, multiplicity = 2:

       Center              X                  Y                   Z       
    ------------   -----------------  -----------------  -----------------
         O            0.000000000000     0.000000000000    -0.106176220599
         H            0.000000000000     0.000000000000     1.685093670823

	Presorting MO-basis TPDMs.
	Sorting File: MO TPDM (AA|AA) nbuckets = 1
	Sorting File: MO TPDM (AA|aa) nbuckets = 1
	Sorting File: MO TPDM (aa|aa) nbuckets = 1
	Starting first half-transformation.
	Sorting half-transformed TPDMs.
	First half integral transformation complete.


  -Nuclear Repulsion Energy 1st Derivatives:
     Atom            X                  Y                   Z
    ------   -----------------  -----------------  -----------------
       1        0.000000000000     0.000000000000     2.493262096379
       2        0.000000000000     0.000000000000    -2.493262096379


  -Core Hamiltonian Gradient:
     Atom            X                  Y                   Z
    ------   -----------------  -----------------  -----------------
       1        0.000000000000     0.000000000000    -4.988769234196
       2        0.000000000000     0.000000000000     4.988769234196


  -Lagrangian contribution to gradient:
     Atom            X                  Y                   Z
    ------   -----------------  -----------------  -----------------
       1        0.000000000000     0.000000000000     0.263403988204
       2        0.000000000000     0.000000000000    -0.263403988204


  -Two-electron contribution to gradient:
     Atom            X                  Y                   Z
    ------   -----------------  -----------------  -----------------
       1        0.000000000000     0.000000000000     2.254787790658
       2        0.000000000000     0.000000000000    -2.254787790658


  -Total gradient:
     Atom            X                  Y                   Z
    ------   -----------------  -----------------  -----------------
       1        0.000000000000     0.000000000000     0.022684641045
       2        0.000000000000     0.000000000000    -0.022684641045


			-----------------------------------------
			 OPTKING 2.0: for geometry optimizations 
			  - R.A. King,  Bethel University        
			-----------------------------------------

	Internal coordinates to be generated automatically.
	Detected frag 1 with atoms:  1 2
	---Fragment 1 Bond Connectivity---
	 1 : 2
	 2 : 1

	---Fragment 1 Geometry and Gradient---
	 O           0.0000000000        0.0000000000       -0.1061762206
	 H           0.0000000000        0.0000000000        1.6850936708
	             0.0000000000        0.0000000000        0.0226846410
	             0.0000000000        0.0000000000       -0.0226846410

	Previous optimization step data not found.  Starting new optimization.

	---Fragment 1 Intrafragment Coordinates---
	 - Coordinate -           - BOHR/RAD -       - ANG/DEG -
	 R(1,2)           =         1.791270	       0.947899

	Current energy   :       -75.6586266423

	Generating empirical Hessian (Schlegel '84) for each fragment.
	Taking RFO optimization step.
	Going to follow RFO solution 1.
	Using RFO vector 1.
	Norm of target step-size    0.03894
	Projected energy change by RFO approximation:        -0.0001249094

	Back-transformation to cartesian coordinates...
	Successfully converged to displaced geometry.

	--- Internal Coordinate Step in ANG or DEG, aJ/ANG or AJ/DEG ---
	 ---------------------------------------------------------------------------
	   Coordinate                Previous        Force       Change         New 
	   ----------                --------       ------       ------       ------
	    1 R(1,2)          =      0.947899     0.186892     0.020609     0.968508
	 ---------------------------------------------------------------------------
	Successfully symmetrized geometry.

  ==> Convergence Check <==

  Measures of convergence in internal coordinates in au.
  Criteria marked as inactive (o), active & met (*), and active & unmet ( ).
  --------------------------------------------------------------------------------------------- ~
   Step     Total Energy     Delta E     MAX Force     RMS Force      MAX Disp      RMS Disp    ~
  --------------------------------------------------------------------------------------------- ~
    Convergence Criteria             o    2.00e-06 *    1.00e-06 *    6.00e-06 *    4.00e-06 *  ~
  --------------------------------------------------------------------------------------------- ~
      1     -75.65862664   -7.57e+01 o    2.27e-02      2.27e-02      3.89e-02      3.89e-02    ~
  ---------------------------------------------------------------------------------------------

	Writing optimization data to binary file.
	Structure for next step:
	Cartesian Geometry (in Angstrom)
	    O     0.0000000000   0.0000000000  -0.0664904068
	    H     0.0000000000   0.0000000000   0.9020175358
			--------------------------
			 OPTKING Finished Execution 
			--------------------------

    Structure for next step:
    Molecular point group: c2v
    Full point group: C_inf_v

    Geometry (in Angstrom), charge = 0, multiplicity = 2:

    O       
    H             1          R1

    R1        =    0.9685079464

gradient() will perform analytic gradient computation.

*** tstart() called on c4-20.compute.lan
*** at Tue Feb 23 16:08:22 2021

   => Loading Basis Set <=

    Name: AUG-CC-PVTZ
    Role: ORBITAL
    Keyword: BASIS
    atoms 1 entry O          line   331 file /apps/gb/PSI4/1.4.0/share/psi4/basis/aug-cc-pvtz.gbs 
    atoms 2 entry H          line    40 file /apps/gb/PSI4/1.4.0/share/psi4/basis/aug-cc-pvtz.gbs 


         ---------------------------------------------------------
                                   SCF
               by Justin Turney, Rob Parrish, Andy Simmonett
                          and Daniel G. A. Smith
                              UHF Reference
                        1 Threads,   9536 MiB Core
         ---------------------------------------------------------

  ==> Geometry <==

    Molecular point group: c2v
    Full point group: C_inf_v

    Geometry (in Angstrom), charge = 0, multiplicity = 2:

       Center              X                  Y                   Z               Mass       
    ------------   -----------------  -----------------  -----------------  -----------------
         O            0.000000000000     0.000000000000    -0.057407604439    15.994914619570
         H            0.000000000000     0.000000000000     0.911100341967     1.007825032230

  Running in c2v symmetry.

  Rotational constants: A = ************  B =     18.95579  C =     18.95579 [cm^-1]
  Rotational constants: A = ************  B = 568280.37742  C = 568280.37742 [MHz]
  Nuclear repulsion =    4.371071709912266

  Charge       = 0
  Multiplicity = 2
  Electrons    = 9
  Nalpha       = 5
  Nbeta        = 4

  ==> Algorithm <==

  SCF Algorithm Type is PK.
  DIIS enabled.
  MOM disabled.
  Fractional occupation disabled.
  Guess Type is READ.
  Energy threshold   = 1.00e-10
  Density threshold  = 1.00e-10
  Integral threshold = 0.00e+00

  ==> Primary Basis <==

  Basis Set: AUG-CC-PVTZ
    Blend: AUG-CC-PVTZ
    Number of shells: 23
    Number of basis function: 69
    Number of Cartesian functions: 80
    Spherical Harmonics?: true
    Max angular momentum: 3

   => Loading Basis Set <=

    Name: AUG-CC-PVTZ
    Role: ORBITAL
    Keyword: BASIS
    atoms 1 entry O          line   331 file /apps/gb/PSI4/1.4.0/share/psi4/basis/aug-cc-pvtz.gbs 
    atoms 2 entry H          line    40 file /apps/gb/PSI4/1.4.0/share/psi4/basis/aug-cc-pvtz.gbs 

  Reading orbitals from file 180, no projection.

  ==> Pre-Iterations <==

   -------------------------------------------------------
    Irrep   Nso     Nmo     Nalpha   Nbeta   Ndocc  Nsocc
   -------------------------------------------------------
     A1        30      30       0       0       0       0
     A2         7       7       0       0       0       0
     B1        16      16       0       0       0       0
     B2        16      16       0       0       0       0
   -------------------------------------------------------
    Total      69      69       5       4       4       1
   -------------------------------------------------------

  ==> Integral Setup <==

  Using in-core PK algorithm.
   Calculation information:
      Number of atoms:                   2
      Number of AO shells:              23
      Number of primitives:             41
      Number of atomic orbitals:        80
      Number of basis functions:        69

      Integral cutoff                 1.00e-12
      Number of threads:                 1

  Performing in-core PK
  Using 5834640 doubles for integral storage.
  We computed 38226 shell quartets total.
  Whereas there are 38226 unique shell quartets.

  ==> DiskJK: Disk-Based J/K Matrices <==

    J tasked:                  Yes
    K tasked:                  Yes
    wK tasked:                  No
    Memory [MiB]:             7152
    Schwarz Cutoff:          1E-12

    OpenMP threads:              1

  Minimum eigenvalue in the overlap matrix is 5.0288406473E-04.
  Using Symmetric Orthogonalization.

  SCF Guess: Orbitals guess was supplied from a previous computation.

  ==> Iterations <==

                        Total Energy        Delta E     RMS |[F,P]|

   @UHF iter   0:   -75.41071313705828   -7.54107e+01   1.37186e-03 
   @UHF iter   1:   -75.42166761839457   -1.09545e-02   1.57878e-04 DIIS
   @UHF iter   2:   -75.42168319883787   -1.55804e-05   3.16914e-05 DIIS
   @UHF iter   3:   -75.42168406907965   -8.70242e-07   1.09659e-05 DIIS
   @UHF iter   4:   -75.42168429809706   -2.29017e-07   4.99188e-06 DIIS
   @UHF iter   5:   -75.42168434462158   -4.65245e-08   2.65873e-06 DIIS
   @UHF iter   6:   -75.42168436132079   -1.66992e-08   1.15849e-06 DIIS
   @UHF iter   7:   -75.42168436544020   -4.11941e-09   2.59930e-07 DIIS
   @UHF iter   8:   -75.42168436560966   -1.69464e-10   3.09354e-08 DIIS
   @UHF iter   9:   -75.42168436561138   -1.71951e-12   6.59498e-09 DIIS
   @UHF iter  10:   -75.42168436561141   -2.84217e-14   2.00716e-09 DIIS
   @UHF iter  11:   -75.42168436561147   -5.68434e-14   3.98802e-10 DIIS
   @UHF iter  12:   -75.42168436561148   -1.42109e-14   9.91403e-11 DIIS
  Energy and wave function converged.


  ==> Post-Iterations <==

   @Spin Contamination Metric:   7.067006081E-03
   @S^2 Expected:                7.500000000E-01
   @S^2 Observed:                7.570670061E-01
   @S   Expected:                5.000000000E-01
   @S   Observed:                5.000000000E-01

    Orbital Energies [Eh]
    ---------------------

    Alpha Occupied:                                                       

       1A1   -20.640994     2A1    -1.390504     3A1    -0.683337  
       1B1    -0.658676     1B2    -0.561793  

    Alpha Virtual:                                                        

       4A1     0.029859     5A1     0.136363     2B1     0.152743  
       2B2     0.162065     6A1     0.184011     7A1     0.262618  
       3B1     0.268703     3B2     0.275233     8A1     0.426598  
       9A1     0.629879     1A2     0.638699    10A1     0.649740  
       4B1     0.714381     4B2     0.729079     5B1     0.853569  
      11A1     0.875719     5B2     0.880881    12A1     0.926046  
       2A2     0.938033    13A1     0.939085     6B1     0.981419  
      14A1     1.000056     6B2     1.008021     7B1     1.496797  
       7B2     1.515999    15A1     1.696063    16A1     2.030288  
       8B1     2.043184     8B2     2.043204     3A2     2.097642  
      17A1     2.098228     9B1     2.252218     9B2     2.289254  
      18A1     2.320649     4A2     2.321617    19A1     2.443283  
      20A1     2.487723    10B1     2.727479    10B2     2.766024  
      21A1     3.580367    11B1     4.021915     5A2     4.031136  
      22A1     4.031384    11B2     4.079044    12B1     4.299108  
      12B2     4.311842    23A1     4.639413    24A1     5.114579  
      13B1     5.258609    13B2     5.297389    25A1     6.132473  
      14B1     6.431571    14B2     6.431595     6A2     6.593706  
      26A1     6.595402    27A1     6.965564     7A2     6.965635  
      15B1     7.131654    16B1     7.165952    15B2     7.182952  
      16B2     7.228673    28A1     7.371956    29A1     7.691824  
      30A1    12.925901  

    Beta Occupied:                                                        

       1A1   -20.601325     2A1    -1.232266     3A1    -0.639414  
       1B2    -0.513744  

    Beta Virtual:                                                         

       4A1     0.031005     1B1     0.063298     5A1     0.138913  
       2B2     0.164266     6A1     0.188226     2B1     0.210153  
       7A1     0.265852     3B2     0.275152     3B1     0.289629  
       8A1     0.436874     9A1     0.645459     1A2     0.655359  
      10A1     0.656589     4B2     0.727275     4B1     0.730983  
      11A1     0.880133     5B2     0.887629     5B1     0.912863  
      12A1     0.937184     2A2     0.940082    13A1     0.941089  
      14A1     1.010772     6B2     1.015919     6B1     1.059720  
       7B2     1.515636     7B1     1.521062    15A1     1.714738  
      16A1     2.052509     8B2     2.062260     8B1     2.062263  
       3A2     2.170676    17A1     2.172329     9B2     2.293621  
       9B1     2.298377    18A1     2.337751     4A2     2.338209  
      19A1     2.460291    20A1     2.501448    10B1     2.770704  
      10B2     2.772693    21A1     3.585895     5A2     4.033835  
      22A1     4.033865    11B2     4.097170    11B1     4.134354  
      12B1     4.304548    12B2     4.308600    23A1     4.649491  
      24A1     5.137389    13B1     5.300207    13B2     5.304718  
      25A1     6.156898    14B2     6.485911    14B1     6.485911  
       6A2     6.634337    26A1     6.634450     7A2     7.057796  
      27A1     7.058016    15B1     7.175169    15B2     7.191706  
      16B2     7.248820    16B1     7.253747    28A1     7.389464  
      29A1     7.720806    30A1    12.958937  

    Final Occupation by Irrep:
             A1    A2    B1    B2 
    DOCC [     3,    0,    0,    1 ]
    SOCC [     0,    0,    1,    0 ]

  @UHF Final Energy:   -75.42168436561148

   => Energetics <=

    Nuclear Repulsion Energy =              4.3710717099122665
    One-Electron Energy =                -112.6634594080056360
    Two-Electron Energy =                  32.8707033324818880
    Total Energy =                        -75.4216843656114690

  UHF NO Occupations:
  HONO-2 :    2 A1 1.9992098
  HONO-1 :    3 A1 1.9978740
  HONO-0 :    1 B1 1.0000000
  LUNO+0 :    4 A1 0.0021260
  LUNO+1 :    5 A1 0.0007902
  LUNO+2 :    2 B2 0.0006190
  LUNO+3 :    6 A1 0.0000011


Computation Completed


Properties will be evaluated at   0.000000,   0.000000,   0.000000 [a0]

Properties computed using the SCF density matrix

  Nuclear Dipole Moment: [e a0]
     X:     0.0000      Y:     0.0000      Z:     0.8539

  Electronic Dipole Moment: [e a0]
     X:     0.0000      Y:     0.0000      Z:    -0.1614

  Dipole Moment: [e a0]
     X:     0.0000      Y:     0.0000      Z:     0.6925     Total:     0.6925

  Dipole Moment: [D]
     X:     0.0000      Y:     0.0000      Z:     1.7601     Total:     1.7601


*** tstop() called on c4-20.compute.lan at Tue Feb 23 16:08:23 2021
Module time:
	user time   =       0.80 seconds =       0.01 minutes
	system time =       0.06 seconds =       0.00 minutes
	total time  =          1 seconds =       0.02 minutes
Total time:
	user time   =    5330.85 seconds =      88.85 minutes
	system time =    3635.10 seconds =      60.59 minutes
	total time  =       8989 seconds =     149.82 minutes
 MINTS: Wrapper to libmints.
   by Justin Turney

   Calculation information:
      Number of threads:                 1
      Number of atoms:                   2
      Number of AO shells:              23
      Number of SO shells:              23
      Number of primitives:             41
      Number of atomic orbitals:        80
      Number of basis functions:        69

      Number of irreps:                  4
      Integral cutoff                 0.00e+00
      Number of functions per irrep: [  30    7   16   16 ]

 OEINTS: Overlap, kinetic, potential, dipole, and quadrupole integrals
         stored in file 35.

      Computing two-electron integrals...done
      Computed 673712 non-zero two-electron integrals.
        Stored in file 33.


*** tstart() called on c4-20.compute.lan
*** at Tue Feb 23 16:08:23 2021


	Wfn Parameters:
	--------------------
	Wavefunction         = CCSD_T
	Number of irreps     = 4
	Number of MOs        = 69
	Number of active MOs = 69
	AO-Basis             = NONE
	Semicanonical        = false
	Reference            = UHF
	Print Level          = 1

	IRREP	# MOs	# FZDC	# DOCC	# SOCC	# VIRT	# FZVR
	-----	-----	------	------	------	------	------
	 A1	   30	    0	    3	    0	    27	    0
	 A2	   7	    0	    0	    0	    7	    0
	 B1	   16	    0	    0	    1	    15	    0
	 B2	   16	    0	    1	    0	    15	    0
	Transforming integrals...
	IWL integrals will be deleted.
	(OO|OO)...
	Presorting SO-basis two-electron integrals.
	Sorting File: SO Ints (nn|nn) nbuckets = 1
	Transforming the one-electron integrals and constructing Fock matrices
	Starting AA/AB first half-transformation.
	Sorting AA/AB half-transformed integrals.
	Starting BB first half-transformation.
	Sorting BB half-transformed integrals.
	First half integral transformation complete.
	Starting AA second half-transformation.
	Starting AB second half-transformation.
	Starting BB second half-transformation.
	Two-electron integral transformation complete.
	(OO|OV)...
	Starting AA second half-transformation.
	Starting AB second half-transformation.
	Starting BB second half-transformation.
	Two-electron integral transformation complete.
	(OO|VV)...
	Starting AA second half-transformation.
	Starting AB second half-transformation.
	Starting BB second half-transformation.
	Two-electron integral transformation complete.
	(OV|OO)...
	Starting AA/AB first half-transformation.
	Sorting AA/AB half-transformed integrals.
	Starting BB first half-transformation.
	Sorting BB half-transformed integrals.
	First half integral transformation complete.
	Starting AA second half-transformation.
	Starting AB second half-transformation.
	Starting BB second half-transformation.
	Two-electron integral transformation complete.
	(OV|OV)...
	Starting AA second half-transformation.
	Starting AB second half-transformation.
	Starting BB second half-transformation.
	Two-electron integral transformation complete.
	(OV|VV)...
	Starting AA second half-transformation.
	Starting AB second half-transformation.
	Starting BB second half-transformation.
	Two-electron integral transformation complete.
	(VV|OO)...
	Starting AA/AB first half-transformation.
	Sorting AA/AB half-transformed integrals.
	Starting BB first half-transformation.
	Sorting BB half-transformed integrals.
	First half integral transformation complete.
	Starting AA second half-transformation.
	Starting AB second half-transformation.
	Starting BB second half-transformation.
	Two-electron integral transformation complete.
	(VV|OV)...
	Starting AA second half-transformation.
	Starting AB second half-transformation.
	Starting BB second half-transformation.
	Two-electron integral transformation complete.
	(VV|VV)...
	Starting AA second half-transformation.
	Starting AB second half-transformation.
	Starting BB second half-transformation.
	Two-electron integral transformation complete.
	Frozen core energy     =      0.00000000000000

	Size of irrep 0 of <AB|CD> integrals:      0.339 (MW) /      2.710 (MB)
	Size of irrep 1 of <AB|CD> integrals:      0.171 (MW) /      1.371 (MB)
	Size of irrep 2 of <AB|CD> integrals:      0.260 (MW) /      2.081 (MB)
	Size of irrep 3 of <AB|CD> integrals:      0.260 (MW) /      2.081 (MB)
	Total:                                     1.030 (MW) /      8.243 (MB)

	Size of irrep 0 of <ab|cd> integrals:      0.356 (MW) /      2.851 (MB)
	Size of irrep 1 of <ab|cd> integrals:      0.184 (MW) /      1.472 (MB)
	Size of irrep 2 of <ab|cd> integrals:      0.288 (MW) /      2.307 (MB)
	Size of irrep 3 of <ab|cd> integrals:      0.267 (MW) /      2.138 (MB)
	Total:                                     1.096 (MW) /      8.769 (MB)

	Size of irrep 0 of <Ab|Cd> integrals:      1.545 (MW) /     12.360 (MB)
	Size of irrep 1 of <Ab|Cd> integrals:      0.711 (MW) /      5.685 (MB)
	Size of irrep 2 of <Ab|Cd> integrals:      1.096 (MW) /      8.770 (MB)
	Size of irrep 3 of <Ab|Cd> integrals:      1.055 (MW) /      8.438 (MB)
	Total:                                     4.407 (MW) /     35.253 (MB)

	Size of irrep 0 of <IA|BC> integrals:      0.136 (MW) /      1.090 (MB)
	Size of irrep 1 of <IA|BC> integrals:      0.042 (MW) /      0.338 (MB)
	Size of irrep 2 of <IA|BC> integrals:      0.081 (MW) /      0.645 (MB)
	Size of irrep 3 of <IA|BC> integrals:      0.081 (MW) /      0.645 (MB)
	Total:                                     0.340 (MW) /      2.718 (MB)

	Size of irrep 0 of <ia|bc> integrals:      0.121 (MW) /      0.967 (MB)
	Size of irrep 1 of <ia|bc> integrals:      0.032 (MW) /      0.254 (MB)
	Size of irrep 2 of <ia|bc> integrals:      0.059 (MW) /      0.473 (MB)
	Size of irrep 3 of <ia|bc> integrals:      0.074 (MW) /      0.596 (MB)
	Total:                                     0.286 (MW) /      2.289 (MB)

	Size of irrep 0 of <Ia|Bc> integrals:      0.139 (MW) /      1.114 (MB)
	Size of irrep 1 of <Ia|Bc> integrals:      0.044 (MW) /      0.351 (MB)
	Size of irrep 2 of <Ia|Bc> integrals:      0.086 (MW) /      0.687 (MB)
	Size of irrep 3 of <Ia|Bc> integrals:      0.081 (MW) /      0.649 (MB)
	Total:                                     0.350 (MW) /      2.800 (MB)

	Size of irrep 0 of <iA|bC> integrals:      0.119 (MW) /      0.955 (MB)
	Size of irrep 1 of <iA|bC> integrals:      0.030 (MW) /      0.243 (MB)
	Size of irrep 2 of <iA|bC> integrals:      0.054 (MW) /      0.436 (MB)
	Size of irrep 3 of <iA|bC> integrals:      0.074 (MW) /      0.592 (MB)
	Total:                                     0.278 (MW) /      2.225 (MB)

	Size of irrep 0 of tIjAb amplitudes:       0.012 (MW) /      0.099 (MB)
	Size of irrep 1 of tIjAb amplitudes:       0.001 (MW) /      0.007 (MB)
	Size of irrep 2 of tIjAb amplitudes:       0.003 (MW) /      0.025 (MB)
	Size of irrep 3 of tIjAb amplitudes:       0.006 (MW) /      0.049 (MB)
	Total:                                     0.023 (MW) /      0.181 (MB)

	Nuclear Rep. energy          =      4.37107170991227
	SCF energy                   =    -75.42168436561148
	One-electron energy          =   -112.66345940888851
	Two-electron (AA) energy     =      7.74527409288680
	Two-electron (BB) energy     =      4.63290497473434
	Two-electron (AB) energy     =     20.49252426574366
	Two-electron energy          =     32.87070333336480
	Reference energy             =    -75.42168436561143

*** tstop() called on c4-20.compute.lan at Tue Feb 23 16:08:25 2021
Module time:
	user time   =       0.85 seconds =       0.01 minutes
	system time =       0.62 seconds =       0.01 minutes
	total time  =          2 seconds =       0.03 minutes
Total time:
	user time   =    5331.89 seconds =      88.86 minutes
	system time =    3635.75 seconds =      60.60 minutes
	total time  =       8991 seconds =     149.85 minutes
            **************************
            *                        *
            *        CCENERGY        *
            *                        *
            **************************

    Nuclear Rep. energy (wfn)     =    4.371071709912266
    SCF energy          (wfn)     =  -75.421684365611483
    Reference energy    (file100) =  -75.421684365611426

    Input parameters:
    -----------------
    Wave function   =     CCSD_T
    Reference wfn   =     UHF
    Brueckner       =     No
    Memory (Mbytes) =     10000.0
    Maxiter         =     50
    R_Convergence   =     1.0e-10
    E_Convergence   =     1.0e-10
    Restart         =     Yes
    DIIS            =     Yes
    AO Basis        =     NONE
    ABCD            =     NEW
    Cache Level     =     2
    Cache Type      =     LRU
    Print Level     =     1
    Num. of threads =     1
    # Amps to Print =     10
    Print MP2 Amps? =     No
    Analyze T2 Amps =     No
    Print Pair Ener =     No
    Local CC        =     No
    SCS-MP2         =     False
    SCSN-MP2        =     False
    SCS-CCSD        =     False

    Using old T1 amplitudes.
    Using old T2 amplitudes.
MP2 correlation energy -0.2181619529776376
                Solving CC Amplitude Equations
                ------------------------------
  Iter             Energy              RMS        T1Diag      D1Diag    New D1Diag    D2Diag
  ----     ---------------------    ---------   ----------  ----------  ----------   --------
     0        -0.202942724435277    0.000e+00    0.012110    0.000000    0.000000    0.000000
     1        -0.230159208546396    8.340e-02    0.013265    0.000000    0.000000    0.000000
     2        -0.230975207429400    1.564e-02    0.012430    0.000000    0.000000    0.000000
     3        -0.231373942452114    3.639e-03    0.012448    0.000000    0.000000    0.000000
     4        -0.231397626665291    9.860e-04    0.012433    0.000000    0.000000    0.000000
     5        -0.231397370303491    2.724e-04    0.012434    0.000000    0.000000    0.000000
     6        -0.231402951883248    1.147e-04    0.012431    0.000000    0.000000    0.000000
     7        -0.231404073139417    4.891e-05    0.012432    0.000000    0.000000    0.000000
     8        -0.231404493868202    1.738e-05    0.012432    0.000000    0.000000    0.000000
     9        -0.231404574688600    5.981e-06    0.012433    0.000000    0.000000    0.000000
    10        -0.231404600649089    2.264e-06    0.012433    0.000000    0.000000    0.000000
    11        -0.231404611992617    8.090e-07    0.012433    0.000000    0.000000    0.000000
    12        -0.231404616563273    2.846e-07    0.012433    0.000000    0.000000    0.000000
    13        -0.231404616945967    9.636e-08    0.012433    0.000000    0.000000    0.000000
    14        -0.231404617307911    3.262e-08    0.012433    0.000000    0.000000    0.000000
    15        -0.231404617536319    1.242e-08    0.012433    0.000000    0.000000    0.000000
    16        -0.231404617551464    4.443e-09    0.012433    0.000000    0.000000    0.000000
    17        -0.231404617583049    1.835e-09    0.012433    0.000000    0.000000    0.000000
    18        -0.231404617601335    8.714e-10    0.012433    0.000000    0.000000    0.000000
    19        -0.231404617615216    4.064e-10    0.012433    0.000000    0.000000    0.000000
    20        -0.231404617621492    1.662e-10    0.012433    0.000000    0.000000    0.000000
    21        -0.231404617621434    6.991e-11    0.012433    0.000000    0.000000    0.000000

    Iterations converged.


    Largest TIA Amplitudes:
              4  49        -0.0139494361
              3  34        -0.0137905681
              4  50        -0.0091198982
              3  35        -0.0087535859
              2   3        -0.0056450384
              3  37        -0.0055926040
              2   1         0.0053116054
              1   2        -0.0048919786
              4  52        -0.0046851670
              2  12        -0.0037641169

    Largest Tia Amplitudes:
              3  50        -0.0112886300
              3  51        -0.0084169056
              1  13        -0.0054767596
              1   6        -0.0053602772
              3  59         0.0047924087
              1   4         0.0044868681
              2  19         0.0040946483
              2  15         0.0039153336
              2   3        -0.0039052049
              3  52        -0.0038950069

    Largest TIJAB Amplitudes:
      4   3  29  13         0.0139815669
      4   3  52  37        -0.0117938344
      4   2  51   6         0.0099683733
      4   3  53  37        -0.0099194482
      3   2  37   8        -0.0098122414
      4   2  52   8        -0.0090338082
      4   3  27  13         0.0090090398
      3   2  36   5         0.0089806794
      4   3  49  37        -0.0086473610
      3   2  37   4        -0.0079938485

    Largest Tijab Amplitudes:
      3   2  52   5         0.0110191067
      3   2  55   5         0.0084251038
      3   2  53   8        -0.0082820616
      3   1  34  27        -0.0078806637
      3   1  34  29         0.0077535749
      3   2  54   4        -0.0076993828
      3   2  54   8        -0.0067980017
      3   2  50   4        -0.0067516384
      2   1  37  34         0.0066288535
      3   2  50   8        -0.0064815889

    Largest TIjAb Amplitudes:
      2   2   4   4        -0.0204128342
      4   3  52  53        -0.0192586659
      4   3  53  54        -0.0184790119
      4   3  52  54        -0.0181483434
      3   1   5  34         0.0169042633
      4   1  29  34         0.0165472050
      3   1  13  34        -0.0162578807
      2   2   8   8        -0.0160131482
      4   3  53  53        -0.0159344243
      3   3  37  53        -0.0148089829

    SCF energy       (wfn)                    =  -75.421684365611483
    Reference energy (file100)                =  -75.421684365611426

    Opposite-spin MP2 correlation energy      =   -0.167474562685117
    Same-spin MP2 correlation energy          =   -0.050687390292520
    MP2 correlation energy                    =   -0.218161952977638
      * MP2 total energy                      =  -75.639846318589065

    Opposite-spin CCSD correlation energy     =   -0.183447873274286
    Same-spin CCSD correlation energy         =   -0.047956744347148
    CCSD correlation energy                   =   -0.231404617621434
      * CCSD total energy                     =  -75.653088983232863

            **************************
            *                        *
            *        CCTRIPLES       *
            *                        *
            **************************


    Wave function   =    CCSD_T
    Reference wfn   =      UHF

    Nuclear Rep. energy (wfn)                =    4.371071709912266
    SCF energy          (wfn)                =  -75.421684365611483
    Reference energy    (file100)            =  -75.421684365611426
    CCSD energy         (file100)            =   -0.231404617621434
    Total CCSD energy   (file100)            =  -75.653088983232863

    Number of ijk index combinations:
    Spin Case AAA:                                 125
    Spin Case BBB:                                  64
    Spin Case AAB:                                 100
    Spin Case ABB:                                  80

    Number of abc index combinations:
    Spin Case AAA:                              262144
    Spin Case BBB:                              274625
    Spin Case AAB:                              266240
    Spin Case ABB:                              270400

    Computing (T) contributions to CC density...
    AAA (T) energy                             =   -0.000205577644423
    BBB (T) energy                             =   -0.000041694237310
    AAB (T) energy                             =   -0.003498376337719
    ABB (T) energy                             =   -0.002250984154005
    (T) energy                                   =   -0.005996632373457
      * CCSD(T) total energy                     =  -75.659085615606315


			**************************
			*                        *
			*         CCHBAR         *
			*                        *
			**************************


			**************************
			*        CCLAMBDA        *
			**************************


	Nuclear Rep. energy (wfn)     =    4.371071709912266
	Reference           (wfn)     =                    2
	SCF energy          (wfn)     =  -75.659085615606315
	Reference energy    (CC_INFO) =  -75.421684365611426

	Input parameters:
	-----------------
	Maxiter           =     50
	Convergence       = 1.0e-07
	Restart           =     No
	Cache Level       =     2
	Model III         =     No
	DIIS              =     Yes
	AO Basis          =     No
	ABCD              =     NEW
	Local CC          =     No
	Parameters for left-handed eigenvectors:
	    Irr   Root  Ground-State?    EOM energy        R0
	  1   0     0        Yes       0.0000000000   1.0000000000
	Labels for eigenvector 1:
	LIA 0 -1, Lia 0 -1, LIJAB 0 -1, Lijab 0 -1, LIjAb 0 -1, 2LIjAb - LIjbA 0 -1
	Symmetry of left-hand state: B1
	Symmetry of left-hand eigenvector: A1

	          Solving Lambda Equations
	          ------------------------
	Iter     PseudoEnergy or Norm         RMS  
	----     ---------------------     --------
	   0        -0.231419538164773    5.054e-08
	   1        -0.238235365434173    2.267e-02
	   2        -0.237899384888014    4.505e-03
	   3        -0.237984478910063    1.410e-03
	   4        -0.238038510623773    7.522e-04
	   5        -0.238043949009407    2.756e-04
	   6        -0.238042034848552    8.809e-05
	   7        -0.238041798044100    3.005e-05
	   8        -0.238041703521440    9.502e-06
	   9        -0.238041791082508    3.242e-06
	  10        -0.238041806449421    1.280e-06
	  11        -0.238041796904841    4.877e-07
	  12        -0.238041798833931    1.688e-07
	  13        -0.238041798783740    6.782e-08

	Largest LIA Amplitudes:
	          4  49        -0.0109136816
	          3  34        -0.0104125334
	          4  50        -0.0068248732
	          3  35        -0.0065774151
	          2   3        -0.0040406425
	          2   1         0.0038144809
	          3  37        -0.0036294411
	          1   2        -0.0035850372
	          4  52        -0.0034160817
	          2  12        -0.0032084133

	Largest Lia Amplitudes:
	          3  50        -0.0074813205
	          3  51        -0.0056773696
	          1   6        -0.0054285711
	          1  13        -0.0053467896
	          1   4         0.0051993606
	          1  10         0.0042043169
	          3  59         0.0039129785
	          2  10         0.0036984086
	          2  15         0.0035738292
	          1  12        -0.0034256845

	Largest LIJAB Amplitudes:
	  4   3  29  13         0.0142505040
	  4   3  52  37        -0.0129603329
	  4   2  51   6         0.0116557124
	  4   3  53  37        -0.0107324304
	  3   2  37   8        -0.0106682707
	  3   2  36   5         0.0104117132
	  4   3  49  37        -0.0101014140
	  4   2  52   8        -0.0098933906
	  4   3  27  13         0.0094996665
	  3   2  37   4        -0.0088416514

	Largest Lijab Amplitudes:
	  3   2  52   5         0.0128580754
	  3   2  55   5         0.0092513360
	  3   2  53   8        -0.0090478064
	  3   1  34  27        -0.0090463818
	  3   2  54   4        -0.0084099631
	  3   2  50   1         0.0082108094
	  3   1  34  29         0.0081549478
	  3   2  50   4        -0.0080093737
	  3   2  51   5         0.0074956888
	  2   1  37  34         0.0073793951

	Largest LIjAb Amplitudes:
	  2   2   4   4        -0.0216609614
	  4   3  52  53        -0.0202591154
	  4   3  53  54        -0.0190748954
	  4   3  52  54        -0.0188794386
	  3   1   5  34         0.0188013192
	  4   1  29  34         0.0172134461
	  3   1  13  34        -0.0167817769
	  4   3  53  53        -0.0165549397
	  2   2   8   8        -0.0165080901
	  4   3  52  50        -0.0159998379

	Iterations converged.

	Overlap <L|e^T> =        0.94129578099

			**************************
			*                        *
			*        CCDENSITY       *
			*                        *
			**************************


	Input parameters:
	-----------------
	Wave function    = CCSD_T
	Reference wfn    =   UHF
	Dertype          = 1
	Tolerance        = 1.0e-14
	Cache Level      = 2
	AO Basis         = No
	OPDM Only        = No
	Relax OPDM       = Yes
	Compute Xi       = No
	Use Zeta         = No
	Xi connected     = Yes
	Compute NO       = No

	Nuclear Rep. energy (wfn)     =    4.371071709912266
	SCF energy          (wfn)     =  -75.659085615606315
	Reference energy    (file100) =  -75.421684365611426
	CCSD energy         (CC_INFO) =   -0.231404617621434
	(T) energy          (CC_INFO) =   -0.005996632373457
	Total CCSD(T) energy(CC_INFO) =  -75.659085615606315
	Number of States = 1

	Ground?  State     EOM Energy       R0
	  Yes     0 A1    0.0000000000   1.00000000
  Cartesian Displacement SALCs
  By SALC:
  Number of SALCs: 2, nirreps: A1
  Project out translations: False
  Project out rotations: False
	irrep = 0, ncomponent = 1
		0: atom 0, direction z, coef 1.000000
	irrep = 0, ncomponent = 1
		0: atom 1, direction z, coef 1.000000

  By Atomic Center:
  Number of atomic centers: 2
   Atomic Center 0:
	x component, size = 0
	y component, size = 0
	z component, size = 1
		0: salc 0, irrep 0, coef 1.000000
   Atomic Center 1:
	x component, size = 0
	y component, size = 0
	z component, size = 1
		0: salc 1, irrep 0, coef 1.000000

    Molecular point group: c2v
    Full point group: C_inf_v

    Geometry (in Bohr), charge = 0, multiplicity = 2:

       Center              X                  Y                   Z       
    ------------   -----------------  -----------------  -----------------
         O            0.000000000000     0.000000000000    -0.108484649907
         H            0.000000000000     0.000000000000     1.721730119129

	Presorting MO-basis TPDMs.
	Sorting File: MO TPDM (AA|AA) nbuckets = 1
	Sorting File: MO TPDM (AA|aa) nbuckets = 1
	Sorting File: MO TPDM (aa|aa) nbuckets = 1
	Starting first half-transformation.
	Sorting half-transformed TPDMs.
	First half integral transformation complete.


  -Nuclear Repulsion Energy 1st Derivatives:
     Atom            X                  Y                   Z
    ------   -----------------  -----------------  -----------------
       1        0.000000000000     0.000000000000     2.388283486649
       2        0.000000000000     0.000000000000    -2.388283486649


  -Core Hamiltonian Gradient:
     Atom            X                  Y                   Z
    ------   -----------------  -----------------  -----------------
       1        0.000000000000     0.000000000000    -4.837448452973
       2        0.000000000000     0.000000000000     4.837448452973


  -Lagrangian contribution to gradient:
     Atom            X                  Y                   Z
    ------   -----------------  -----------------  -----------------
       1        0.000000000000     0.000000000000     0.262346087329
       2        0.000000000000     0.000000000000    -0.262346087329


  -Two-electron contribution to gradient:
     Atom            X                  Y                   Z
    ------   -----------------  -----------------  -----------------
       1        0.000000000000     0.000000000000     2.188210206123
       2        0.000000000000     0.000000000000    -2.188210206123


  -Total gradient:
     Atom            X                  Y                   Z
    ------   -----------------  -----------------  -----------------
       1        0.000000000000     0.000000000000     0.001391327129
       2        0.000000000000     0.000000000000    -0.001391327129


			-----------------------------------------
			 OPTKING 2.0: for geometry optimizations 
			  - R.A. King,  Bethel University        
			-----------------------------------------

	Previous internal coordinate definitions found.
	---Fragment 1 Geometry and Gradient---
	 O           0.0000000000        0.0000000000       -0.1084846499
	 H           0.0000000000        0.0000000000        1.7217301191
	             0.0000000000        0.0000000000        0.0013913271
	             0.0000000000        0.0000000000       -0.0013913271

	---Fragment 1 Intrafragment Coordinates---
	 - Coordinate -           - BOHR/RAD -       - ANG/DEG -
	 R(1,2)           =         1.830215	       0.968508

	Current energy   :       -75.6590856156

	Energy change for the previous step:
		Projected    :        -0.0001249094
		Actual       :        -0.0004589733
	Energy ratio indicates good step: Trust radius increased to 1.000e+00.


	Performing BFGS update.
	Previous computed or guess Hessian on step 1.
	Steps to be used in Hessian update: 1
	Taking RFO optimization step.
	Going to follow RFO solution 1.
	Using RFO vector 1.
	Norm of target step-size    0.00254
	Projected energy change by RFO approximation:        -0.0000003028

	Back-transformation to cartesian coordinates...
	Successfully converged to displaced geometry.

	--- Internal Coordinate Step in ANG or DEG, aJ/ANG or AJ/DEG ---
	 ---------------------------------------------------------------------------
	   Coordinate                Previous        Force       Change         New 
	   ----------                --------       ------       ------       ------
	    1 R(1,2)          =      0.968508     0.011463     0.001347     0.969855
	 ---------------------------------------------------------------------------
	Successfully symmetrized geometry.

  ==> Convergence Check <==

  Measures of convergence in internal coordinates in au.
  Criteria marked as inactive (o), active & met (*), and active & unmet ( ).
  ---------------------------------------------------------------------------------------------
   Step     Total Energy     Delta E     MAX Force     RMS Force      MAX Disp      RMS Disp   
  ---------------------------------------------------------------------------------------------
    Convergence Criteria             o    2.00e-06 *    1.00e-06 *    6.00e-06 *    4.00e-06 *
  ---------------------------------------------------------------------------------------------
      2     -75.65908562   -4.59e-04 o    1.39e-03      1.39e-03      2.54e-03      2.54e-03    ~
  ---------------------------------------------------------------------------------------------

	Writing optimization data to binary file.
	Structure for next step:
	Cartesian Geometry (in Angstrom)
	    O     0.0000000000   0.0000000000  -0.0580808981
	    H     0.0000000000   0.0000000000   0.9117736323
			--------------------------
			 OPTKING Finished Execution 
			--------------------------

    Structure for next step:
    Molecular point group: c2v
    Full point group: C_inf_v

    Geometry (in Angstrom), charge = 0, multiplicity = 2:

    O       
    H             1          R1

    R1        =    0.9698545342

gradient() will perform analytic gradient computation.

*** tstart() called on c4-20.compute.lan
*** at Tue Feb 23 18:37:39 2021

   => Loading Basis Set <=

    Name: AUG-CC-PVTZ
    Role: ORBITAL
    Keyword: BASIS
    atoms 1 entry O          line   331 file /apps/gb/PSI4/1.4.0/share/psi4/basis/aug-cc-pvtz.gbs 
    atoms 2 entry H          line    40 file /apps/gb/PSI4/1.4.0/share/psi4/basis/aug-cc-pvtz.gbs 


         ---------------------------------------------------------
                                   SCF
               by Justin Turney, Rob Parrish, Andy Simmonett
                          and Daniel G. A. Smith
                              UHF Reference
                        1 Threads,   9536 MiB Core
         ---------------------------------------------------------

  ==> Geometry <==

    Molecular point group: c2v
    Full point group: C_inf_v

    Geometry (in Angstrom), charge = 0, multiplicity = 2:

       Center              X                  Y                   Z               Mass       
    ------------   -----------------  -----------------  -----------------  -----------------
         O            0.000000000000     0.000000000000    -0.057487422449    15.994914619570
         H            0.000000000000     0.000000000000     0.912367111711     1.007825032230

  Running in c2v symmetry.

  Rotational constants: A = ************  B =     18.90319  C =     18.90319 [cm^-1]
  Rotational constants: A = ************  B = 566703.42309  C = 566703.42309 [MHz]
  Nuclear repulsion =    4.365002725926590

  Charge       = 0
  Multiplicity = 2
  Electrons    = 9
  Nalpha       = 5
  Nbeta        = 4

  ==> Algorithm <==

  SCF Algorithm Type is PK.
  DIIS enabled.
  MOM disabled.
  Fractional occupation disabled.
  Guess Type is READ.
  Energy threshold   = 1.00e-10
  Density threshold  = 1.00e-10
  Integral threshold = 0.00e+00

  ==> Primary Basis <==

  Basis Set: AUG-CC-PVTZ
    Blend: AUG-CC-PVTZ
    Number of shells: 23
    Number of basis function: 69
    Number of Cartesian functions: 80
    Spherical Harmonics?: true
    Max angular momentum: 3

   => Loading Basis Set <=

    Name: AUG-CC-PVTZ
    Role: ORBITAL
    Keyword: BASIS
    atoms 1 entry O          line   331 file /apps/gb/PSI4/1.4.0/share/psi4/basis/aug-cc-pvtz.gbs 
    atoms 2 entry H          line    40 file /apps/gb/PSI4/1.4.0/share/psi4/basis/aug-cc-pvtz.gbs 

  Reading orbitals from file 180, no projection.

  ==> Pre-Iterations <==

   -------------------------------------------------------
    Irrep   Nso     Nmo     Nalpha   Nbeta   Ndocc  Nsocc
   -------------------------------------------------------
     A1        30      30       0       0       0       0
     A2         7       7       0       0       0       0
     B1        16      16       0       0       0       0
     B2        16      16       0       0       0       0
   -------------------------------------------------------
    Total      69      69       5       4       4       1
   -------------------------------------------------------

  ==> Integral Setup <==

  Using in-core PK algorithm.
   Calculation information:
      Number of atoms:                   2
      Number of AO shells:              23
      Number of primitives:             41
      Number of atomic orbitals:        80
      Number of basis functions:        69

      Integral cutoff                 1.00e-12
      Number of threads:                 1

  Performing in-core PK
  Using 5834640 doubles for integral storage.
  We computed 38226 shell quartets total.
  Whereas there are 38226 unique shell quartets.

  ==> DiskJK: Disk-Based J/K Matrices <==

    J tasked:                  Yes
    K tasked:                  Yes
    wK tasked:                  No
    Memory [MiB]:             7152
    Schwarz Cutoff:          1E-12

    OpenMP threads:              1

  Minimum eigenvalue in the overlap matrix is 5.0455999162E-04.
  Using Symmetric Orthogonalization.

  SCF Guess: Orbitals guess was supplied from a previous computation.

[...]
	total time  =          2 seconds =       0.03 minutes
Total time:
	user time   =   21342.98 seconds =     355.72 minutes
	system time =   14365.65 seconds =     239.43 minutes
	total time  =      35804 seconds =     596.73 minutes
            **************************
            *                        *
            *        CCENERGY        *
            *                        *
            **************************

    Nuclear Rep. energy (wfn)     =    4.364518129055577
    SCF energy          (wfn)     =  -75.421634367417170
    Reference energy    (file100) =  -75.421634367417184

    Input parameters:
    -----------------
    Wave function   =     CCSD_T
    Reference wfn   =     UHF
    Brueckner       =     No
    Memory (Mbytes) =     10000.0
    Maxiter         =     50
    R_Convergence   =     1.0e-10
    E_Convergence   =     1.0e-10
    Restart         =     Yes
    DIIS            =     Yes
    AO Basis        =     NONE
    ABCD            =     NEW
    Cache Level     =     2
    Cache Type      =     LRU
    Print Level     =     1
    Num. of threads =     1
    # Amps to Print =     10
    Print MP2 Amps? =     No
    Analyze T2 Amps =     No
    Print Pair Ener =     No
    Local CC        =     No
    SCS-MP2         =     False
    SCSN-MP2        =     False
    SCS-CCSD        =     False

    Using old T1 amplitudes.
    Using old T2 amplitudes.
MP2 correlation energy -0.2182042839918147
                Solving CC Amplitude Equations
                ------------------------------
  Iter             Energy              RMS        T1Diag      D1Diag    New D1Diag    D2Diag
  ----     ---------------------    ---------   ----------  ----------  ----------   --------
     0        -0.231449426450575    0.000e+00    0.012456    0.000000    0.000000    0.000000
     1        -0.231449645186844    2.042e-05    0.012456    0.000000    0.000000    0.000000
     2        -0.231449657065348    4.666e-06    0.012457    0.000000    0.000000    0.000000
     3        -0.231449675916279    1.154e-06    0.012457    0.000000    0.000000    0.000000
     4        -0.231449674823698    2.273e-07    0.012457    0.000000    0.000000    0.000000
     5        -0.231449677142347    6.896e-08    0.012457    0.000000    0.000000    0.000000
     6        -0.231449677487068    3.462e-08    0.012457    0.000000    0.000000    0.000000
     7        -0.231449677791165    1.200e-08    0.012457    0.000000    0.000000    0.000000
     8        -0.231449677859426    4.964e-09    0.012457    0.000000    0.000000    0.000000
     9        -0.231449677879693    1.746e-09    0.012457    0.000000    0.000000    0.000000
    10        -0.231449677891617    4.487e-10    0.012457    0.000000    0.000000    0.000000
    11        -0.231449677896556    1.473e-10    0.012457    0.000000    0.000000    0.000000
    12        -0.231449677898112    4.731e-11    0.012457    0.000000    0.000000    0.000000

    Iterations converged.


    Largest TIA Amplitudes:
              4  49        -0.0139785398
              3  34        -0.0138146075
              4  50        -0.0091299715
              3  35        -0.0087574307
              2   3        -0.0056619368
              3  37        -0.0055991157
              2   1         0.0053321833
              1   2        -0.0048950501
              4  52        -0.0046899053
              2  12        -0.0037825543

    Largest Tia Amplitudes:
              3  50        -0.0113149636
              3  51        -0.0084290390
              1  13        -0.0054725764
              1   6        -0.0053433845
              3  59         0.0047973587
              1   4         0.0045180926
              2  19         0.0041053475
              2  15         0.0039261409
              3  52        -0.0038996400
              2   3        -0.0038946848

    Largest TIJAB Amplitudes:
      4   3  29  13         0.0139780091
      4   3  52  37        -0.0117833060
      4   2  51   6         0.0099463898
      4   3  53  37        -0.0099325985
      3   2  37   8        -0.0098169651
      4   2  52   8        -0.0090376722
      4   3  27  13         0.0090066762
      3   2  36   5         0.0090011831
      4   3  49  37        -0.0086490538
      3   2  37   4        -0.0080063789

    Largest Tijab Amplitudes:
      3   2  52   5         0.0110052955
      3   2  55   5         0.0084038078
      3   2  53   8        -0.0080759971
      3   1  34  27        -0.0078826891
      3   1  34  29         0.0077519929
      3   2  54   4        -0.0077309884
      3   2  50   4        -0.0067723301
      2   1  37  34         0.0066308936
      3   2  54   8        -0.0065730335
      3   2  50   1         0.0064406160

    Largest TIjAb Amplitudes:
      2   2   4   4        -0.0205409623
      4   3  52  53        -0.0192271658
      4   3  53  54        -0.0185325997
      4   3  52  54        -0.0181641719
      3   1   5  34         0.0168963407
      4   1  29  34         0.0165474907
      3   1  13  34        -0.0162726300
      4   3  53  53        -0.0159394117
      2   2   8   8        -0.0155769296
      3   3  37  53        -0.0147917210

    SCF energy       (wfn)                    =  -75.421634367417170
    Reference energy (file100)                =  -75.421634367417184

    Opposite-spin MP2 correlation energy      =   -0.167506901111378
    Same-spin MP2 correlation energy          =   -0.050697382880437
    MP2 correlation energy                    =   -0.218204283991815
      * MP2 total energy                      =  -75.639838651408994

    Opposite-spin CCSD correlation energy     =   -0.183489528644644
    Same-spin CCSD correlation energy         =   -0.047960149253468
    CCSD correlation energy                   =   -0.231449677898112
      * CCSD total energy                     =  -75.653084045315296

            **************************
            *                        *
            *        CCTRIPLES       *
            *                        *
            **************************


    Wave function   =    CCSD_T
    Reference wfn   =      UHF

    Nuclear Rep. energy (wfn)                =    4.364518129055577
    SCF energy          (wfn)                =  -75.421634367417170
    Reference energy    (file100)            =  -75.421634367417184
    CCSD energy         (file100)            =   -0.231449677898112
    Total CCSD energy   (file100)            =  -75.653084045315296

    Number of ijk index combinations:
    Spin Case AAA:                                 125
    Spin Case BBB:                                  64
    Spin Case AAB:                                 100
    Spin Case ABB:                                  80

    Number of abc index combinations:
    Spin Case AAA:                              262144
    Spin Case BBB:                              274625
    Spin Case AAB:                              266240
    Spin Case ABB:                              270400

    Computing (T) contributions to CC density...
    AAA (T) energy                             =   -0.000205681742006
    BBB (T) energy                             =   -0.000041733202643
    AAB (T) energy                             =   -0.003502237176253
    ABB (T) energy                             =   -0.002253827529342
    (T) energy                                   =   -0.006003479650244
      * CCSD(T) total energy                     =  -75.659087524965543


			**************************
			*                        *
			*         CCHBAR         *
			*                        *
			**************************


			**************************
			*        CCLAMBDA        *
			**************************


	Nuclear Rep. energy (wfn)     =    4.364518129055577
	Reference           (wfn)     =                    2
	SCF energy          (wfn)     =  -75.659087524965543
	Reference energy    (CC_INFO) =  -75.421634367417184

	Input parameters:
	-----------------
	Maxiter           =     50
	Convergence       = 1.0e-07
	Restart           =     No
	Cache Level       =     2
	Model III         =     No
	DIIS              =     Yes
	AO Basis          =     No
	ABCD              =     NEW
	Local CC          =     No
	Parameters for left-handed eigenvectors:
	    Irr   Root  Ground-State?    EOM energy        R0
	  1   0     0        Yes       0.0000000000   1.0000000000
	Labels for eigenvector 1:
	LIA 0 -1, Lia 0 -1, LIJAB 0 -1, Lijab 0 -1, LIjAb 0 -1, 2LIjAb - LIjbA 0 -1
	Symmetry of left-hand state: B1
	Symmetry of left-hand eigenvector: A1

	          Solving Lambda Equations
	          ------------------------
	Iter     PseudoEnergy or Norm         RMS  
	----     ---------------------     --------
	   0        -0.231464537014008    6.892e-08
	   1        -0.238286086866719    2.270e-02
	   2        -0.237948643356610    4.514e-03
	   3        -0.238033837346279    1.413e-03
	   4        -0.238088063777378    7.545e-04
	   5        -0.238093527664657    2.766e-04
	   6        -0.238091607638766    8.847e-05
	   7        -0.238091370446866    3.021e-05
	   8        -0.238091275640496    9.573e-06
	   9        -0.238091364325200    3.275e-06
	  10        -0.238091379878665    1.298e-06
	  11        -0.238091370237787    4.951e-07
	  12        -0.238091372202608    1.717e-07
	  13        -0.238091372141314    6.893e-08

	Largest LIA Amplitudes:
	          4  49        -0.0109359063
	          3  34        -0.0104295339
	          4  50        -0.0068316802
	          3  35        -0.0065789071
	          2   3        -0.0040600515
	          2   1         0.0038370706
	          3  37        -0.0036351470
	          1   2        -0.0035882373
	          4  52        -0.0034217790
	          2  12        -0.0032223263

	Largest Lia Amplitudes:
	          3  50        -0.0074976124
	          3  51        -0.0056844661
	          1   6        -0.0054134856
	          1  13        -0.0053428860
	          1   4         0.0052283499
	          1  10         0.0042065809
	          3  59         0.0039163235
	          2  10         0.0037266388
	          2  15         0.0035812866
	          1  12        -0.0034426127

	Largest LIJAB Amplitudes:
	  4   3  29  13         0.0142467494
	  4   3  52  37        -0.0129489302
	  4   2  51   6         0.0116306759
	  4   3  53  37        -0.0107470034
	  3   2  37   8        -0.0106717020
	  3   2  36   5         0.0104358510
	  4   3  49  37        -0.0101036450
	  4   2  52   8        -0.0098964468
	  4   3  27  13         0.0094971756
	  3   2  37   4        -0.0088549123

	Largest Lijab Amplitudes:
	  3   2  52   5         0.0128419186
	  3   2  55   5         0.0092289635
	  3   1  34  27        -0.0090491745
	  3   2  53   8        -0.0088244240
	  3   2  54   4        -0.0084435235
	  3   2  50   1         0.0082348707
	  3   1  34  29         0.0081532712
	  3   2  50   4        -0.0080327811
	  3   2  51   5         0.0074890614
	  2   1  37  34         0.0073814995

	Largest LIjAb Amplitudes:
	  2   2   4   4        -0.0217957228
	  4   3  52  53        -0.0202262987
	  4   3  53  54        -0.0191308150
	  4   3  52  54        -0.0188964556
	  3   1   5  34         0.0187937327
	  4   1  29  34         0.0172136019
	  3   1  13  34        -0.0167969489
	  4   3  53  53        -0.0165606492
	  2   2   8   8        -0.0160574155
	  4   3  52  50        -0.0159965174

	Iterations converged.

	Overlap <L|e^T> =        0.94122243039

			**************************
			*                        *
			*        CCDENSITY       *
			*                        *
			**************************


	Input parameters:
	-----------------
	Wave function    = CCSD_T
	Reference wfn    =   UHF
	Dertype          = 1
	Tolerance        = 1.0e-14
	Cache Level      = 2
	AO Basis         = No
	OPDM Only        = No
	Relax OPDM       = Yes
	Compute Xi       = No
	Use Zeta         = No
	Xi connected     = Yes
	Compute NO       = No

	Nuclear Rep. energy (wfn)     =    4.364518129055577
	SCF energy          (wfn)     =  -75.659087524965543
	Reference energy    (file100) =  -75.421634367417184
	CCSD energy         (CC_INFO) =   -0.231449677898112
	(T) energy          (CC_INFO) =   -0.006003479650244
	Total CCSD(T) energy(CC_INFO) =  -75.659087524965543
	Number of States = 1

	Ground?  State     EOM Energy       R0
	  Yes     0 A1    0.0000000000   1.00000000
  Cartesian Displacement SALCs
  By SALC:
  Number of SALCs: 2, nirreps: A1
  Project out translations: False
  Project out rotations: False
	irrep = 0, ncomponent = 1
		0: atom 0, direction z, coef 1.000000
	irrep = 0, ncomponent = 1
		0: atom 1, direction z, coef 1.000000

  By Atomic Center:
  Number of atomic centers: 2
   Atomic Center 0:
	x component, size = 0
	y component, size = 0
	z component, size = 1
		0: salc 0, irrep 0, coef 1.000000
   Atomic Center 1:
	x component, size = 0
	y component, size = 0
	z component, size = 1
		0: salc 1, irrep 0, coef 1.000000

    Molecular point group: c2v
    Full point group: C_inf_v

    Geometry (in Bohr), charge = 0, multiplicity = 2:

       Center              X                  Y                   Z       
    ------------   -----------------  -----------------  -----------------
         O            0.000000000000     0.000000000000    -0.108647545994
         H            0.000000000000     0.000000000000     1.724315398240

	Presorting MO-basis TPDMs.
	Sorting File: MO TPDM (AA|AA) nbuckets = 1
	Sorting File: MO TPDM (AA|aa) nbuckets = 1
	Sorting File: MO TPDM (aa|aa) nbuckets = 1
	Starting first half-transformation.
	Sorting half-transformed TPDMs.
	First half integral transformation complete.


  -Nuclear Repulsion Energy 1st Derivatives:
     Atom            X                  Y                   Z
    ------   -----------------  -----------------  -----------------
       1        0.000000000000     0.000000000000     2.381127312357
       2        0.000000000000     0.000000000000    -2.381127312357


  -Core Hamiltonian Gradient:
     Atom            X                  Y                   Z
    ------   -----------------  -----------------  -----------------
       1        0.000000000000     0.000000000000    -4.827069745737
       2        0.000000000000     0.000000000000     4.827069745737


  -Lagrangian contribution to gradient:
     Atom            X                  Y                   Z
    ------   -----------------  -----------------  -----------------
       1        0.000000000000     0.000000000000     0.262240669282
       2        0.000000000000     0.000000000000    -0.262240669282


  -Two-electron contribution to gradient:
     Atom            X                  Y                   Z
    ------   -----------------  -----------------  -----------------
       1        0.000000000000     0.000000000000     2.183702336885
       2        0.000000000000     0.000000000000    -2.183702336885


  -Total gradient:
     Atom            X                  Y                   Z
    ------   -----------------  -----------------  -----------------
       1        0.000000000000     0.000000000000     0.000000572786
       2        0.000000000000     0.000000000000    -0.000000572786


			-----------------------------------------
			 OPTKING 2.0: for geometry optimizations 
			  - R.A. King,  Bethel University        
			-----------------------------------------

	Previous internal coordinate definitions found.
	---Fragment 1 Geometry and Gradient---
	 O           0.0000000000        0.0000000000       -0.1086475460
	 H           0.0000000000        0.0000000000        1.7243153982
	             0.0000000000        0.0000000000        0.0000005728
	             0.0000000000        0.0000000000       -0.0000005728

	---Fragment 1 Intrafragment Coordinates---
	 - Coordinate -           - BOHR/RAD -       - ANG/DEG -
	 R(1,2)           =         1.832963	       0.969962

	Current energy   :       -75.6590875250

	Energy change for the previous step:
		Projected    :        -0.0000000000
		Actual       :        -0.0000000000

	Performing BFGS update.
	Previous computed or guess Hessian on step 1.
	Denominators (dg)(dq) or (dq)(dq) are very small.
	 Skipping Hessian update for step 4.
	Denominators (dg)(dq) or (dq)(dq) are very small.
	 Skipping Hessian update for step 3.
	Steps to be used in Hessian update: 2 1
	Taking RFO optimization step.
	Going to follow RFO solution 1.
	Using RFO vector 1.
	Norm of target step-size    0.00000
	Projected energy change by RFO approximation:        -0.0000000000

	Back-transformation to cartesian coordinates...
	Successfully converged to displaced geometry.

	--- Internal Coordinate Step in ANG or DEG, aJ/ANG or AJ/DEG ---
	 ---------------------------------------------------------------------------
	   Coordinate                Previous        Force       Change         New 
	   ----------                --------       ------       ------       ------
	    1 R(1,2)          =      0.969962     0.000005     0.000001     0.969963
	 ---------------------------------------------------------------------------
	Successfully symmetrized geometry.

  ==> Convergence Check <==

  Measures of convergence in internal coordinates in au.
  Criteria marked as inactive (o), active & met (*), and active & unmet ( ).
  ---------------------------------------------------------------------------------------------
   Step     Total Energy     Delta E     MAX Force     RMS Force      MAX Disp      RMS Disp   
  ---------------------------------------------------------------------------------------------
    Convergence Criteria             o    2.00e-06 *    1.00e-06 *    6.00e-06 *    4.00e-06 *
  ---------------------------------------------------------------------------------------------
      5     -75.65908752   -4.79e-11 o    5.73e-07 *    5.73e-07 *    1.05e-06 *    1.05e-06 *  ~
  ---------------------------------------------------------------------------------------------


  **** Optimization is complete! (in 5 steps) ****

  ==> Optimization Summary <==

  Measures of convergence in internal coordinates in au.
  --------------------------------------------------------------------------------------------------------------- ~
   Step         Total Energy             Delta E       MAX Force       RMS Force        MAX Disp        RMS Disp  ~
  --------------------------------------------------------------------------------------------------------------- ~
      1     -75.658626642347    -75.658626642347      0.02268464      0.02268464      0.03894488      0.03894488  ~
      2     -75.659085615606     -0.000458973259      0.00139133      0.00139133      0.00254468      0.00254468  ~
      3     -75.659087514426     -0.000001898820      0.00010307      0.00010307      0.00018937      0.00018937  ~
      4     -75.659087524918     -0.000000010492      0.00000768      0.00000768      0.00001412      0.00001412  ~
      5     -75.659087524966     -0.000000000048      0.00000057      0.00000057      0.00000105      0.00000105  ~
  --------------------------------------------------------------------------------------------------------------- ~

	Writing optimization data to binary file.
	Final energy is    -75.6590875249655
	Final (previous) structure:
	Cartesian Geometry (in Angstrom)
	    O     0.0000000000   0.0000000000  -0.0574938051
	    H     0.0000000000   0.0000000000   0.9124684092
	Saving final (previous) structure.
			--------------------------
			 OPTKING Finished Execution 
			--------------------------

    Final optimized geometry and variables:
    Molecular point group: c2v
    Full point group: C_inf_v

    Geometry (in Angstrom), charge = 0, multiplicity = 2:

    O       
    H             1          R1

    R1        =    0.9699622181

	Removing binary optimization data file.
	Cleaning optimization helper files.

    Psi4 stopped on: Wednesday, 24 February 2021 02:05AM
    Psi4 wall time for execution: 12:26:49.06

*** Psi4 exiting successfully. Buy a developer a beer!
