
    -----------------------------------------------------------------------
          Psi4: An Open-Source Ab Initio Electronic Structure Package
                               Psi4 1.4a2.dev191 

                         Git: Rev {master} 0ab5346 


    R. M. Parrish, L. A. Burns, D. G. A. Smith, A. C. Simmonett,
    A. E. DePrince III, E. G. Hohenstein, U. Bozkaya, A. Yu. Sokolov,
    R. Di Remigio, R. M. Richard, J. F. Gonthier, A. M. James,
    H. R. McAlexander, A. Kumar, M. Saitow, X. Wang, B. P. Pritchard,
    P. Verma, H. F. Schaefer III, K. Patkowski, R. A. King, E. F. Valeev,
    F. A. Evangelista, J. M. Turney, T. D. Crawford, and C. D. Sherrill,
    J. Chem. Theory Comput. 13(7) pp 3185--3197 (2017).
    (doi: 10.1021/acs.jctc.7b00174)


                         Additional Contributions by
    P. Kraus, H. Kruse, M. H. Lechner, M. C. Schieber, R. A. Shaw,
    A. Alenaizan, R. Galvelis, Z. L. Glick, S. Lehtola, and J. P. Misiewicz

    -----------------------------------------------------------------------


    Psi4 started on: Tuesday, 23 February 2021 01:25PM

    Process ID: 66073
    Host:       c4-9.compute.lan
    PSIDATADIR: /apps/gb/PSI4/1.4.0/share/psi4
    Memory:     500.0 MiB
    Threads:    1
    
  ==> Input File <==

--------------------------------------------------------------------------
memory 10 GB
molecule {
0 2
O
H 1 R1
R1 = 0.9478992047
}
set {
basis aug-cc-pvdz
e_convergence 10
g_convergence gau_verytight
reference uhf
scf_type pk
mp2_type conv
}

optimize("mp2")

--------------------------------------------------------------------------

  Memory set to   9.313 GiB by Python driver.
gradient() will perform analytic gradient computation.

*** tstart() called on c4-9.compute.lan
*** at Tue Feb 23 13:25:44 2021

   => Loading Basis Set <=

    Name: AUG-CC-PVDZ
    Role: ORBITAL
    Keyword: BASIS
    atoms 1 entry O          line   254 file /apps/gb/PSI4/1.4.0/share/psi4/basis/aug-cc-pvdz.gbs 
    atoms 2 entry H          line    40 file /apps/gb/PSI4/1.4.0/share/psi4/basis/aug-cc-pvdz.gbs 


         ---------------------------------------------------------
                                   SCF
               by Justin Turney, Rob Parrish, Andy Simmonett
                          and Daniel G. A. Smith
                              UHF Reference
                        1 Threads,   9536 MiB Core
         ---------------------------------------------------------

  ==> Geometry <==

    Molecular point group: c2v
    Full point group: C_inf_v

    Geometry (in Angstrom), charge = 0, multiplicity = 2:

       Center              X                  Y                   Z               Mass       
    ------------   -----------------  -----------------  -----------------  -----------------
         O            0.000000000000     0.000000000000    -0.056186036256    15.994914619570
         H            0.000000000000     0.000000000000     0.891713168444     1.007825032230

  Running in c2v symmetry.

  Rotational constants: A = ************  B =     19.78901  C =     19.78901 [cm^-1]
  Rotational constants: A = ************  B = 593259.52428  C = 593259.52428 [MHz]
  Nuclear repulsion =    4.466105324668810

  Charge       = 0
  Multiplicity = 2
  Electrons    = 9
  Nalpha       = 5
  Nbeta        = 4

  ==> Algorithm <==

  SCF Algorithm Type is PK.
  DIIS enabled.
  MOM disabled.
  Fractional occupation disabled.
  Guess Type is SAD.
  Energy threshold   = 1.00e-10
  Density threshold  = 1.00e-10
  Integral threshold = 0.00e+00

  ==> Primary Basis <==

  Basis Set: AUG-CC-PVDZ
    Blend: AUG-CC-PVDZ
    Number of shells: 14
    Number of basis function: 32
    Number of Cartesian functions: 34
    Spherical Harmonics?: true
    Max angular momentum: 2

  ==> Pre-Iterations <==

   -------------------------------------------------------
    Irrep   Nso     Nmo     Nalpha   Nbeta   Ndocc  Nsocc
   -------------------------------------------------------
     A1        16      16       0       0       0       0
     A2         2       2       0       0       0       0
     B1         7       7       0       0       0       0
     B2         7       7       0       0       0       0
   -------------------------------------------------------
    Total      32      32       5       4       4       1
   -------------------------------------------------------

  ==> Integral Setup <==

  Using in-core PK algorithm.
   Calculation information:
      Number of atoms:                   2
      Number of AO shells:              14
      Number of primitives:             32
      Number of atomic orbitals:        34
      Number of basis functions:        32

      Integral cutoff                 1.00e-12
      Number of threads:                 1

  Performing in-core PK
  Using 279312 doubles for integral storage.
  We computed 5565 shell quartets total.
  Whereas there are 5565 unique shell quartets.

  ==> DiskJK: Disk-Based J/K Matrices <==

    J tasked:                  Yes
    K tasked:                  Yes
    wK tasked:                  No
    Memory [MiB]:             7152
    Schwarz Cutoff:          1E-12

    OpenMP threads:              1

  Minimum eigenvalue in the overlap matrix is 3.2729941475E-03.
  Using Symmetric Orthogonalization.

  SCF Guess: Superposition of Atomic Densities via on-the-fly atomic UHF.

  ==> Iterations <==

                        Total Energy        Delta E     RMS |[F,P]|

   @UHF iter SAD:   -74.64871607335931   -7.46487e+01   0.00000e+00 
   @UHF iter   1:   -75.38150619371569   -7.32790e-01   1.11813e-02 DIIS
   @UHF iter   2:   -75.40081837616231   -1.93122e-02   4.16365e-03 DIIS
   @UHF iter   3:   -75.40333881770701   -2.52044e-03   1.20954e-03 DIIS
   @UHF iter   4:   -75.40373646200496   -3.97644e-04   3.97463e-04 DIIS
   @UHF iter   5:   -75.40380444451560   -6.79825e-05   1.70884e-04 DIIS
   @UHF iter   6:   -75.40382178519025   -1.73407e-05   5.57764e-05 DIIS
   @UHF iter   7:   -75.40382402164749   -2.23646e-06   1.58291e-05 DIIS
   @UHF iter   8:   -75.40382419149677   -1.69849e-07   3.72310e-06 DIIS
   @UHF iter   9:   -75.40382419904540   -7.54864e-09   1.01431e-06 DIIS
   @UHF iter  10:   -75.40382419966031   -6.14904e-10   1.52038e-07 DIIS
   @UHF iter  11:   -75.40382419967213   -1.18234e-11   1.82179e-08 DIIS
   @UHF iter  12:   -75.40382419967223   -9.94760e-14   4.85718e-09 DIIS
   @UHF iter  13:   -75.40382419967221    1.42109e-14   1.11005e-09 DIIS
   @UHF iter  14:   -75.40382419967227   -5.68434e-14   2.17753e-10 DIIS
   @UHF iter  15:   -75.40382419967227    0.00000e+00   3.54770e-11 DIIS
  Energy and wave function converged.


  ==> Post-Iterations <==

   @Spin Contamination Metric:   6.284287007E-03
   @S^2 Expected:                7.500000000E-01
   @S^2 Observed:                7.562842870E-01
   @S   Expected:                5.000000000E-01
   @S   Observed:                5.000000000E-01

    Orbital Energies [Eh]
    ---------------------

    Alpha Occupied:                                                       

       1A1   -20.649677     2A1    -1.399661     3A1    -0.690582  
       1B2    -0.658019     1B1    -0.562559  

    Alpha Virtual:                                                        

       4A1     0.036049     5A1     0.177925     2B2     0.184671  
       2B1     0.197475     6A1     0.227519     7A1     0.320862  
       3B2     0.388944     3B1     0.399514     8A1     0.630975  
       9A1     0.849102     1A2     0.955602    10A1     0.957538  
       4B2     1.086194     4B1     1.116823    11A1     1.318808  
       5B2     1.332699     5B1     1.391507    12A1     1.672731  
       6B2     2.026073     6B1     2.044521    13A1     2.538446  
      14A1     2.764824     2A2     3.483263    15A1     3.483362  
       7B2     3.596448     7B1     3.656629    16A1     4.135199  

    Beta Occupied:                                                        

       1A1   -20.608990     2A1    -1.243286     3A1    -0.645812  
       1B1    -0.513110  

    Beta Virtual:                                                         

       4A1     0.037436     1B2     0.063815     5A1     0.180986  
       2B1     0.200865     6A1     0.234426     2B2     0.256352  
       7A1     0.325873     3B1     0.399318     3B2     0.413052  
       8A1     0.645583     9A1     0.860841     1A2     0.994323  
      10A1     0.995472     4B1     1.119131     4B2     1.132527  
      11A1     1.333870     5B1     1.414561     5B2     1.502082  
      12A1     1.695229     6B2     2.035306     6B1     2.041636  
      13A1     2.571909    14A1     2.780361     2A2     3.583454  
      15A1     3.584198     7B1     3.674913     7B2     3.692566  
      16A1     4.168149  

    Final Occupation by Irrep:
             A1    A2    B1    B2 
    DOCC [     3,    0,    1,    0 ]
    SOCC [     0,    0,    0,    1 ]

  @UHF Final Energy:   -75.40382419967227

   => Energetics <=

    Nuclear Repulsion Energy =              4.4661053246688098
    One-Electron Energy =                -112.7681629268980714
    Two-Electron Energy =                  32.8982334025569827
    Total Energy =                        -75.4038241996722860

  UHF NO Occupations:
  HONO-2 :    2 A1 1.9993524
  HONO-1 :    3 A1 1.9980512
  HONO-0 :    1 B2 1.0000000
  LUNO+0 :    4 A1 0.0019488
  LUNO+1 :    5 A1 0.0006476
  LUNO+2 :    2 B1 0.0005476
  LUNO+3 :    6 A1 0.0000004


Computation Completed


Properties will be evaluated at   0.000000,   0.000000,   0.000000 [a0]

Properties computed using the SCF density matrix

  Nuclear Dipole Moment: [e a0]
     X:     0.0000      Y:     0.0000      Z:     0.8357

  Electronic Dipole Moment: [e a0]
     X:     0.0000      Y:     0.0000      Z:    -0.1458

  Dipole Moment: [e a0]
     X:     0.0000      Y:     0.0000      Z:     0.6899     Total:     0.6899

  Dipole Moment: [D]
     X:     0.0000      Y:     0.0000      Z:     1.7535     Total:     1.7535


*** tstop() called on c4-9.compute.lan at Tue Feb 23 13:25:45 2021
Module time:
	user time   =       0.63 seconds =       0.01 minutes
	system time =       0.02 seconds =       0.00 minutes
	total time  =          1 seconds =       0.02 minutes
Total time:
	user time   =       0.63 seconds =       0.01 minutes
	system time =       0.02 seconds =       0.00 minutes
	total time  =          1 seconds =       0.02 minutes
 MINTS: Wrapper to libmints.
   by Justin Turney

   Calculation information:
      Number of threads:                 1
      Number of atoms:                   2
      Number of AO shells:              14
      Number of SO shells:              14
      Number of primitives:             32
      Number of atomic orbitals:        34
      Number of basis functions:        32

      Number of irreps:                  4
      Integral cutoff                 0.00e+00
      Number of functions per irrep: [  16    2    7    7 ]

 OEINTS: Overlap, kinetic, potential, dipole, and quadrupole integrals
         stored in file 35.

      Computing two-electron integrals...done
      Computed 33337 non-zero two-electron integrals.
        Stored in file 33.


*** tstart() called on c4-9.compute.lan
*** at Tue Feb 23 13:25:45 2021


 ============================================================================== 
 ============================================================================== 
 ============================================================================== 

                       MP2   
              Program Written by Ugur Bozkaya,
              Latest Revision June 25, 2014.

 ============================================================================== 
 ============================================================================== 
 ============================================================================== 

	RMS orbital gradient is changed to :     1.00e-07
	MAX orbital gradient is changed to :     1.00e-04
	MO spaces per irreps... 

	IRREP   FC   AOCC  BOCC  AVIR    BVIR  FV 
	==========================================
	  A1     0     3     3    13     13     0
	  A2     0     0     0     2      2     0
	  B1     0     1     1     6      6     0
	  B2     0     1     0     6      7     0
	==========================================

	Computing MP2 energy using SCF MOs (Canonical MP2)... 
	============================================================================== 
	Nuclear Repulsion Energy (a.u.)    :     4.46610532466881
	SCF Energy (a.u.)                  :   -75.40382419967227
	REF Energy (a.u.)                  :   -75.40382419967227
	Alpha-Alpha Contribution (a.u.)    :    -0.02708117892702
	Alpha-Beta Contribution (a.u.)     :    -0.12307858593372
	Beta-Beta Contribution (a.u.)      :    -0.01304433002165
	Scaled_SS Correlation Energy (a.u.):    -0.01337516964956
	Scaled_OS Correlation Energy (a.u.):    -0.14769430312046
	SCS-MP2 Total Energy (a.u.)        :   -75.56489367244228
	SOS-MP2 Total Energy (a.u.)        :   -75.40382419967227
	SCSN-MP2 Total Energy (a.u.)       :   -75.47444509542194
	SCS-MP2-VDW Total Energy (a.u.)    :   -75.58142754414177
	SOS-PI-MP2 Total Energy (a.u.)     :   -75.57613421997948
	MP2 Correlation Energy (a.u.)      :    -0.16320409488239
	MP2 Total Energy (a.u.)            :   -75.56702829455466
	============================================================================== 
	Analytic gradient computation is starting...
	Computing response density matrices...
	Computing off-diagonal blocks of GFM...
	Forming independent-pairs...
	Number of alpha independent-pairs: 51
	Number of beta independent-pairs : 45
	Computing orbital gradient...
	Computing diagonal blocks of GFM...
	Solving orbital Z-vector equations...
	Forming relaxed response density matrices...
	Forming relaxed GFM...
	Writing particle density matrices and GFM to disk...
	Necessary information has been sent to DERIV, which will take care of the rest.

*** tstop() called on c4-9.compute.lan at Tue Feb 23 13:25:45 2021
Module time:
	user time   =       0.07 seconds =       0.00 minutes
	system time =       0.07 seconds =       0.00 minutes
	total time  =          0 seconds =       0.00 minutes
Total time:
	user time   =       0.75 seconds =       0.01 minutes
	system time =       0.10 seconds =       0.00 minutes
	total time  =          1 seconds =       0.02 minutes
  Cartesian Displacement SALCs
  By SALC:
  Number of SALCs: 2, nirreps: A1
  Project out translations: False
  Project out rotations: False
	irrep = 0, ncomponent = 1
		0: atom 0, direction z, coef 1.000000
	irrep = 0, ncomponent = 1
		0: atom 1, direction z, coef 1.000000

  By Atomic Center:
  Number of atomic centers: 2
   Atomic Center 0:
	x component, size = 0
	y component, size = 0
	z component, size = 1
		0: salc 0, irrep 0, coef 1.000000
   Atomic Center 1:
	x component, size = 0
	y component, size = 0
	z component, size = 1
		0: salc 1, irrep 0, coef 1.000000

    Molecular point group: c2v
    Full point group: C_inf_v

    Geometry (in Bohr), charge = 0, multiplicity = 2:

       Center              X                  Y                   Z       
    ------------   -----------------  -----------------  -----------------
         O            0.000000000000     0.000000000000    -0.106176220599
         H            0.000000000000     0.000000000000     1.685093670823

	Presorting MO-basis TPDMs.
	Sorting File: MO TPDM (AA|AA) nbuckets = 1
	Sorting File: MO TPDM (AA|aa) nbuckets = 1
	Sorting File: MO TPDM (aa|aa) nbuckets = 1
	Starting first half-transformation.
	Sorting half-transformed TPDMs.
	First half integral transformation complete.


  -Nuclear Repulsion Energy 1st Derivatives:
     Atom            X                  Y                   Z
    ------   -----------------  -----------------  -----------------
       1        0.000000000000     0.000000000000     2.493262096379
       2        0.000000000000     0.000000000000    -2.493262096379


  -Core Hamiltonian Gradient:
     Atom            X                  Y                   Z
    ------   -----------------  -----------------  -----------------
       1        0.000000000000     0.000000000000    -6.032085295312
       2        0.000000000000     0.000000000000     6.032085295312


  -Lagrangian contribution to gradient:
     Atom            X                  Y                   Z
    ------   -----------------  -----------------  -----------------
       1        0.000000000000     0.000000000000     0.437274910356
       2        0.000000000000     0.000000000000    -0.437274910356


  -Two-electron contribution to gradient:
     Atom            X                  Y                   Z
    ------   -----------------  -----------------  -----------------
       1        0.000000000000     0.000000000000     3.129890689933
       2        0.000000000000     0.000000000000    -3.129890689933


  -Total gradient:
     Atom            X                  Y                   Z
    ------   -----------------  -----------------  -----------------
       1        0.000000000000     0.000000000000     0.028342401356
       2        0.000000000000     0.000000000000    -0.028342401356


			-----------------------------------------
			 OPTKING 2.0: for geometry optimizations 
			  - R.A. King,  Bethel University        
			-----------------------------------------

	Internal coordinates to be generated automatically.
	Detected frag 1 with atoms:  1 2
	---Fragment 1 Bond Connectivity---
	 1 : 2
	 2 : 1

	---Fragment 1 Geometry and Gradient---
	 O           0.0000000000        0.0000000000       -0.1061762206
	 H           0.0000000000        0.0000000000        1.6850936708
	             0.0000000000        0.0000000000        0.0283424014
	             0.0000000000        0.0000000000       -0.0283424014

	Previous optimization step data not found.  Starting new optimization.

	---Fragment 1 Intrafragment Coordinates---
	 - Coordinate -           - BOHR/RAD -       - ANG/DEG -
	 R(1,2)           =         1.791270	       0.947899

	Current energy   :       -75.5670282946

	Generating empirical Hessian (Schlegel '84) for each fragment.
	Taking RFO optimization step.
	Going to follow RFO solution 1.
	Using RFO vector 1.
	Norm of target step-size    0.04862
	Projected energy change by RFO approximation:        -0.0001956574

	Back-transformation to cartesian coordinates...
	Successfully converged to displaced geometry.

	--- Internal Coordinate Step in ANG or DEG, aJ/ANG or AJ/DEG ---
	 ---------------------------------------------------------------------------
	   Coordinate                Previous        Force       Change         New 
	   ----------                --------       ------       ------       ------
	    1 R(1,2)          =      0.947899     0.233505     0.025727     0.973626
	 ---------------------------------------------------------------------------
	Successfully symmetrized geometry.

  ==> Convergence Check <==

  Measures of convergence in internal coordinates in au.
  Criteria marked as inactive (o), active & met (*), and active & unmet ( ).
  --------------------------------------------------------------------------------------------- ~
   Step     Total Energy     Delta E     MAX Force     RMS Force      MAX Disp      RMS Disp    ~
  --------------------------------------------------------------------------------------------- ~
    Convergence Criteria             o    2.00e-06 *    1.00e-06 *    6.00e-06 *    4.00e-06 *  ~
  --------------------------------------------------------------------------------------------- ~
      1     -75.56702829   -7.56e+01 o    2.83e-02      2.83e-02      4.86e-02      4.86e-02    ~
  ---------------------------------------------------------------------------------------------

	Writing optimization data to binary file.
	Structure for next step:
	Cartesian Geometry (in Angstrom)
	    O     0.0000000000   0.0000000000  -0.0690494929
	    H     0.0000000000   0.0000000000   0.9045766218
			--------------------------
			 OPTKING Finished Execution 
			--------------------------

    Structure for next step:
    Molecular point group: c2v
    Full point group: C_inf_v

    Geometry (in Angstrom), charge = 0, multiplicity = 2:

    O       
    H             1          R1

    R1        =    0.9736261186

gradient() will perform analytic gradient computation.

*** tstart() called on c4-9.compute.lan
*** at Tue Feb 23 13:25:45 2021

   => Loading Basis Set <=

    Name: AUG-CC-PVDZ
    Role: ORBITAL
    Keyword: BASIS
    atoms 1 entry O          line   254 file /apps/gb/PSI4/1.4.0/share/psi4/basis/aug-cc-pvdz.gbs 
    atoms 2 entry H          line    40 file /apps/gb/PSI4/1.4.0/share/psi4/basis/aug-cc-pvdz.gbs 


         ---------------------------------------------------------
                                   SCF
               by Justin Turney, Rob Parrish, Andy Simmonett
                          and Daniel G. A. Smith
                              UHF Reference
                        1 Threads,   9536 MiB Core
         ---------------------------------------------------------

  ==> Geometry <==

    Molecular point group: c2v
    Full point group: C_inf_v

    Geometry (in Angstrom), charge = 0, multiplicity = 2:

       Center              X                  Y                   Z               Mass       
    ------------   -----------------  -----------------  -----------------  -----------------
         O            0.000000000000     0.000000000000    -0.057710980374    15.994914619570
         H            0.000000000000     0.000000000000     0.915915138221     1.007825032230

  Running in c2v symmetry.

  Rotational constants: A = ************  B =     18.75702  C =     18.75702 [cm^-1]
  Rotational constants: A = ************  B = 562321.39194  C = 562321.39194 [MHz]
  Nuclear repulsion =    4.348093795459310

  Charge       = 0
  Multiplicity = 2
  Electrons    = 9
  Nalpha       = 5
  Nbeta        = 4

  ==> Algorithm <==

  SCF Algorithm Type is PK.
  DIIS enabled.
  MOM disabled.
  Fractional occupation disabled.
  Guess Type is READ.
  Energy threshold   = 1.00e-10
  Density threshold  = 1.00e-10
  Integral threshold = 0.00e+00

  ==> Primary Basis <==

  Basis Set: AUG-CC-PVDZ
    Blend: AUG-CC-PVDZ
    Number of shells: 14
    Number of basis function: 32
    Number of Cartesian functions: 34
    Spherical Harmonics?: true
    Max angular momentum: 2

   => Loading Basis Set <=

    Name: AUG-CC-PVDZ
    Role: ORBITAL
    Keyword: BASIS
    atoms 1 entry O          line   254 file /apps/gb/PSI4/1.4.0/share/psi4/basis/aug-cc-pvdz.gbs 
    atoms 2 entry H          line    40 file /apps/gb/PSI4/1.4.0/share/psi4/basis/aug-cc-pvdz.gbs 

  Reading orbitals from file 180, no projection.

  ==> Pre-Iterations <==

   -------------------------------------------------------
    Irrep   Nso     Nmo     Nalpha   Nbeta   Ndocc  Nsocc
   -------------------------------------------------------
     A1        16      16       0       0       0       0
     A2         2       2       0       0       0       0
     B1         7       7       0       0       0       0
     B2         7       7       0       0       0       0
   -------------------------------------------------------
    Total      32      32       5       4       4       1
   -------------------------------------------------------

  ==> Integral Setup <==

  Using in-core PK algorithm.
   Calculation information:
      Number of atoms:                   2
      Number of AO shells:              14
      Number of primitives:             32
      Number of atomic orbitals:        34
      Number of basis functions:        32

      Integral cutoff                 1.00e-12
      Number of threads:                 1

  Performing in-core PK
  Using 279312 doubles for integral storage.
  We computed 5565 shell quartets total.
  Whereas there are 5565 unique shell quartets.

  ==> DiskJK: Disk-Based J/K Matrices <==

    J tasked:                  Yes
    K tasked:                  Yes
    wK tasked:                  No
    Memory [MiB]:             7152
    Schwarz Cutoff:          1E-12

    OpenMP threads:              1

  Minimum eigenvalue in the overlap matrix is 3.4408008310E-03.
  Using Symmetric Orthogonalization.

  SCF Guess: Orbitals guess was supplied from a previous computation.

  ==> Iterations <==

                        Total Energy        Delta E     RMS |[F,P]|

   @UHF iter   0:   -75.38259406551521   -7.53826e+01   3.88946e-03 
   @UHF iter   1:   -75.40348698369711   -2.08929e-02   4.73324e-04 DIIS
   @UHF iter   2:   -75.40352369587748   -3.67122e-05   1.49433e-04 DIIS
   @UHF iter   3:   -75.40352685767138   -3.16179e-06   3.90100e-05 DIIS
   @UHF iter   4:   -75.40352732543521   -4.67764e-07   1.53430e-05 DIIS
   @UHF iter   5:   -75.40352743074280   -1.05308e-07   6.71214e-06 DIIS
   @UHF iter   6:   -75.40352746334135   -3.25985e-08   2.69805e-06 DIIS
   @UHF iter   7:   -75.40352746903204   -5.69069e-09   6.11295e-07 DIIS
   @UHF iter   8:   -75.40352746926308   -2.31040e-10   7.27449e-08 DIIS
   @UHF iter   9:   -75.40352746926558   -2.50111e-12   1.48536e-08 DIIS
   @UHF iter  10:   -75.40352746926573   -1.42109e-13   4.58774e-09 DIIS
   @UHF iter  11:   -75.40352746926573    0.00000e+00   9.55229e-10 DIIS
   @UHF iter  12:   -75.40352746926571    1.42109e-14   2.12698e-10 DIIS
   @UHF iter  13:   -75.40352746926571    0.00000e+00   4.84698e-11 DIIS
  Energy and wave function converged.


  ==> Post-Iterations <==

   @Spin Contamination Metric:   6.609098913E-03
   @S^2 Expected:                7.500000000E-01
   @S^2 Observed:                7.566090989E-01
   @S   Expected:                5.000000000E-01
   @S   Observed:                5.000000000E-01

    Orbital Energies [Eh]
    ---------------------

    Alpha Occupied:                                                       

       1A1   -20.651692     2A1    -1.391948     3A1    -0.683186  
       1B2    -0.656978     1B1    -0.561444  

    Alpha Virtual:                                                        

       4A1     0.035653     5A1     0.178315     2B2     0.185227  
       2B1     0.198139     6A1     0.225389     7A1     0.315994  
       3B2     0.386009     3B1     0.396320     8A1     0.625175  
       9A1     0.839763     1A2     0.956562    10A1     0.958280  
       4B2     1.086609     4B1     1.117027    11A1     1.316582  
       5B2     1.327824     5B1     1.386696    12A1     1.660835  
       6B2     2.011066     6B1     2.028791    13A1     2.486448  
      14A1     2.759685    15A1     3.484179     2A2     3.484291  
       7B2     3.591596     7B1     3.651854    16A1     4.091239  

    Beta Occupied:                                                        

       1A1   -20.610781     2A1    -1.233869     3A1    -0.638911  
       1B1    -0.511757  

    Beta Virtual:                                                         

       4A1     0.037124     1B2     0.064572     5A1     0.181753  
       2B1     0.201597     6A1     0.232237     2B2     0.257937  
       7A1     0.321121     3B1     0.395868     3B2     0.409063  
       8A1     0.639992     9A1     0.849895     1A2     0.995248  
      10A1     0.996327     4B1     1.119281     4B2     1.132181  
      11A1     1.331672     5B1     1.409931     5B2     1.498408  
      12A1     1.683895     6B2     2.018828     6B1     2.025415  
      13A1     2.518590    14A1     2.775550     2A2     3.584587  
      15A1     3.585294     7B1     3.670588     7B2     3.688391  
      16A1     4.125414  

    Final Occupation by Irrep:
             A1    A2    B1    B2 
    DOCC [     3,    0,    1,    0 ]
    SOCC [     0,    0,    0,    1 ]

  @UHF Final Energy:   -75.40352746926571

   => Energetics <=

    Nuclear Repulsion Energy =              4.3480937954593104
    One-Electron Energy =                -112.5626755284826146
    Two-Electron Energy =                  32.8110542637575904
    Total Energy =                        -75.4035274692657254

  UHF NO Occupations:
  HONO-2 :    2 A1 1.9992419
  HONO-1 :    3 A1 1.9980108
  HONO-0 :    1 B2 1.0000000
  LUNO+0 :    4 A1 0.0019892
  LUNO+1 :    5 A1 0.0007581
  LUNO+2 :    2 B1 0.0005592
  LUNO+3 :    6 A1 0.0000004


Computation Completed


Properties will be evaluated at   0.000000,   0.000000,   0.000000 [a0]

Properties computed using the SCF density matrix

  Nuclear Dipole Moment: [e a0]
     X:     0.0000      Y:     0.0000      Z:     0.8584

  Electronic Dipole Moment: [e a0]
     X:     0.0000      Y:     0.0000      Z:    -0.1606

  Dipole Moment: [e a0]
     X:     0.0000      Y:     0.0000      Z:     0.6978     Total:     0.6978

  Dipole Moment: [D]
     X:     0.0000      Y:     0.0000      Z:     1.7737     Total:     1.7737


*** tstop() called on c4-9.compute.lan at Tue Feb 23 13:25:45 2021
Module time:
	user time   =       0.33 seconds =       0.01 minutes
	system time =       0.01 seconds =       0.00 minutes
	total time  =          0 seconds =       0.00 minutes
Total time:
	user time   =       1.24 seconds =       0.02 minutes
	system time =       0.16 seconds =       0.00 minutes
	total time  =          1 seconds =       0.02 minutes
 MINTS: Wrapper to libmints.
   by Justin Turney

   Calculation information:
      Number of threads:                 1
      Number of atoms:                   2
      Number of AO shells:              14
      Number of SO shells:              14
      Number of primitives:             32
      Number of atomic orbitals:        34
      Number of basis functions:        32

      Number of irreps:                  4
      Integral cutoff                 0.00e+00
      Number of functions per irrep: [  16    2    7    7 ]

 OEINTS: Overlap, kinetic, potential, dipole, and quadrupole integrals
         stored in file 35.

      Computing two-electron integrals...done
      Computed 33337 non-zero two-electron integrals.
        Stored in file 33.


*** tstart() called on c4-9.compute.lan
*** at Tue Feb 23 13:25:46 2021


 ============================================================================== 
 ============================================================================== 
 ============================================================================== 

                       MP2   
              Program Written by Ugur Bozkaya,
              Latest Revision June 25, 2014.

 ============================================================================== 
 ============================================================================== 
 ============================================================================== 

	RMS orbital gradient is changed to :     1.00e-07
	MAX orbital gradient is changed to :     1.00e-04
	MO spaces per irreps... 

	IRREP   FC   AOCC  BOCC  AVIR    BVIR  FV 
	==========================================
	  A1     0     3     3    13     13     0
	  A2     0     0     0     2      2     0
	  B1     0     1     1     6      6     0
	  B2     0     1     0     6      7     0
	==========================================

	Computing MP2 energy using SCF MOs (Canonical MP2)... 
	============================================================================== 
	Nuclear Repulsion Energy (a.u.)    :     4.34809379545931
	SCF Energy (a.u.)                  :   -75.40352746926571
	REF Energy (a.u.)                  :   -75.40352746926571
	Alpha-Alpha Contribution (a.u.)    :    -0.02719546956416
	Alpha-Beta Contribution (a.u.)     :    -0.12387224877590
	Beta-Beta Contribution (a.u.)      :    -0.01312790650494
	Scaled_SS Correlation Energy (a.u.):    -0.01344112535637
	Scaled_OS Correlation Energy (a.u.):    -0.14864669853107
	SCS-MP2 Total Energy (a.u.)        :   -75.56561529315316
	SOS-MP2 Total Energy (a.u.)        :   -75.40352746926571
	SCSN-MP2 Total Energy (a.u.)       :   -75.47449661114733
	SCS-MP2-VDW Total Energy (a.u.)    :   -75.58224563573340
	SOS-PI-MP2 Total Energy (a.u.)     :   -75.57694861755196
	MP2 Correlation Energy (a.u.)      :    -0.16419562484500
	MP2 Total Energy (a.u.)            :   -75.56772309411070
	============================================================================== 
	Analytic gradient computation is starting...
	Computing response density matrices...
	Computing off-diagonal blocks of GFM...
	Forming independent-pairs...
	Number of alpha independent-pairs: 51
	Number of beta independent-pairs : 45
	Computing orbital gradient...
	Computing diagonal blocks of GFM...
	Solving orbital Z-vector equations...
	Forming relaxed response density matrices...
	Forming relaxed GFM...
	Writing particle density matrices and GFM to disk...
	Necessary information has been sent to DERIV, which will take care of the rest.

*** tstop() called on c4-9.compute.lan at Tue Feb 23 13:25:46 2021
Module time:
	user time   =       0.07 seconds =       0.00 minutes
	system time =       0.08 seconds =       0.00 minutes
	total time  =          0 seconds =       0.00 minutes
Total time:
	user time   =       1.36 seconds =       0.02 minutes
	system time =       0.25 seconds =       0.00 minutes
	total time  =          2 seconds =       0.03 minutes
  Cartesian Displacement SALCs
  By SALC:
  Number of SALCs: 2, nirreps: A1
  Project out translations: False
  Project out rotations: False
	irrep = 0, ncomponent = 1
		0: atom 0, direction z, coef 1.000000
	irrep = 0, ncomponent = 1
		0: atom 1, direction z, coef 1.000000

  By Atomic Center:
  Number of atomic centers: 2
   Atomic Center 0:
	x component, size = 0
	y component, size = 0
	z component, size = 1
		0: salc 0, irrep 0, coef 1.000000
   Atomic Center 1:
	x component, size = 0
	y component, size = 0
	z component, size = 1
		0: salc 1, irrep 0, coef 1.000000

    Molecular point group: c2v
    Full point group: C_inf_v

    Geometry (in Bohr), charge = 0, multiplicity = 2:

       Center              X                  Y                   Z       
    ------------   -----------------  -----------------  -----------------
         O            0.000000000000     0.000000000000    -0.109057947339
         H            0.000000000000     0.000000000000     1.730828765398

	Presorting MO-basis TPDMs.
	Sorting File: MO TPDM (AA|AA) nbuckets = 1
	Sorting File: MO TPDM (AA|aa) nbuckets = 1
	Sorting File: MO TPDM (aa|aa) nbuckets = 1
	Starting first half-transformation.
	Sorting half-transformed TPDMs.
	First half integral transformation complete.


  -Nuclear Repulsion Energy 1st Derivatives:
     Atom            X                  Y                   Z
    ------   -----------------  -----------------  -----------------
       1        0.000000000000     0.000000000000     2.363239956764
       2        0.000000000000     0.000000000000    -2.363239956764


  -Core Hamiltonian Gradient:
     Atom            X                  Y                   Z
    ------   -----------------  -----------------  -----------------
       1        0.000000000000     0.000000000000    -5.819731097825
       2        0.000000000000     0.000000000000     5.819731097825


  -Lagrangian contribution to gradient:
     Atom            X                  Y                   Z
    ------   -----------------  -----------------  -----------------
       1        0.000000000000     0.000000000000     0.421909641762
       2        0.000000000000     0.000000000000    -0.421909641762


  -Two-electron contribution to gradient:
     Atom            X                  Y                   Z
    ------   -----------------  -----------------  -----------------
       1        0.000000000000     0.000000000000     3.035621244954
       2        0.000000000000     0.000000000000    -3.035621244954


  -Total gradient:
     Atom            X                  Y                   Z
    ------   -----------------  -----------------  -----------------
       1        0.000000000000     0.000000000000     0.001039745655
       2        0.000000000000     0.000000000000    -0.001039745655


			-----------------------------------------
			 OPTKING 2.0: for geometry optimizations 
			  - R.A. King,  Bethel University        
			-----------------------------------------

	Previous internal coordinate definitions found.
	---Fragment 1 Geometry and Gradient---
	 O           0.0000000000        0.0000000000       -0.1090579473
	 H           0.0000000000        0.0000000000        1.7308287654
	             0.0000000000        0.0000000000        0.0010397457
	             0.0000000000        0.0000000000       -0.0010397457

	---Fragment 1 Intrafragment Coordinates---
	 - Coordinate -           - BOHR/RAD -       - ANG/DEG -
	 R(1,2)           =         1.839887	       0.973626

	Current energy   :       -75.5677230941

	Energy change for the previous step:
		Projected    :        -0.0001956574
		Actual       :        -0.0006947996
	Energy ratio indicates good step: Trust radius increased to 1.000e+00.


	Performing BFGS update.
	Previous computed or guess Hessian on step 1.
	Steps to be used in Hessian update: 1
	Taking RFO optimization step.
	Going to follow RFO solution 1.
	Using RFO vector 1.
	Norm of target step-size    0.00185
	Projected energy change by RFO approximation:        -0.0000002111

	Back-transformation to cartesian coordinates...
	Successfully converged to displaced geometry.

	--- Internal Coordinate Step in ANG or DEG, aJ/ANG or AJ/DEG ---
	 ---------------------------------------------------------------------------
	   Coordinate                Previous        Force       Change         New 
	   ----------                --------       ------       ------       ------
	    1 R(1,2)          =      0.973626     0.008566     0.000980     0.974606
	 ---------------------------------------------------------------------------
	Successfully symmetrized geometry.

  ==> Convergence Check <==

  Measures of convergence in internal coordinates in au.
  Criteria marked as inactive (o), active & met (*), and active & unmet ( ).
  ---------------------------------------------------------------------------------------------
   Step     Total Energy     Delta E     MAX Force     RMS Force      MAX Disp      RMS Disp   
  ---------------------------------------------------------------------------------------------
    Convergence Criteria             o    2.00e-06 *    1.00e-06 *    6.00e-06 *    4.00e-06 *
  ---------------------------------------------------------------------------------------------
      2     -75.56772309   -6.95e-04 o    1.04e-03      1.04e-03      1.85e-03      1.85e-03    ~
  ---------------------------------------------------------------------------------------------

	Writing optimization data to binary file.
	Structure for next step:
	Cartesian Geometry (in Angstrom)
	    O     0.0000000000   0.0000000000  -0.0582008474
	    H     0.0000000000   0.0000000000   0.9164050019
			--------------------------
			 OPTKING Finished Execution 
			--------------------------

    Structure for next step:
    Molecular point group: c2v
    Full point group: C_inf_v

    Geometry (in Angstrom), charge = 0, multiplicity = 2:

    O       
    H             1          R1

    R1        =    0.9746058532

gradient() will perform analytic gradient computation.

*** tstart() called on c4-9.compute.lan
*** at Tue Feb 23 13:25:46 2021

   => Loading Basis Set <=

    Name: AUG-CC-PVDZ
    Role: ORBITAL
    Keyword: BASIS
    atoms 1 entry O          line   254 file /apps/gb/PSI4/1.4.0/share/psi4/basis/aug-cc-pvdz.gbs 
    atoms 2 entry H          line    40 file /apps/gb/PSI4/1.4.0/share/psi4/basis/aug-cc-pvdz.gbs 


         ---------------------------------------------------------
                                   SCF
               by Justin Turney, Rob Parrish, Andy Simmonett
                          and Daniel G. A. Smith
                              UHF Reference
                        1 Threads,   9536 MiB Core
         ---------------------------------------------------------

  ==> Geometry <==

    Molecular point group: c2v
    Full point group: C_inf_v

    Geometry (in Angstrom), charge = 0, multiplicity = 2:

       Center              X                  Y                   Z               Mass       
    ------------   -----------------  -----------------  -----------------  -----------------
         O            0.000000000000     0.000000000000    -0.057769053428    15.994914619570
         H            0.000000000000     0.000000000000     0.916836799723     1.007825032230

  Running in c2v symmetry.

  Rotational constants: A = ************  B =     18.71933  C =     18.71933 [cm^-1]
  Rotational constants: A = ************  B = 561191.39916  C = 561191.39916 [MHz]
  Nuclear repulsion =    4.343722820538389

  Charge       = 0
  Multiplicity = 2
  Electrons    = 9
  Nalpha       = 5
  Nbeta        = 4

  ==> Algorithm <==

  SCF Algorithm Type is PK.
  DIIS enabled.
  MOM disabled.
  Fractional occupation disabled.
  Guess Type is READ.
  Energy threshold   = 1.00e-10
  Density threshold  = 1.00e-10
  Integral threshold = 0.00e+00

  ==> Primary Basis <==

  Basis Set: AUG-CC-PVDZ
    Blend: AUG-CC-PVDZ
    Number of shells: 14
    Number of basis function: 32
    Number of Cartesian functions: 34
    Spherical Harmonics?: true
    Max angular momentum: 2

   => Loading Basis Set <=

    Name: AUG-CC-PVDZ
    Role: ORBITAL
    Keyword: BASIS
    atoms 1 entry O          line   254 file /apps/gb/PSI4/1.4.0/share/psi4/basis/aug-cc-pvdz.gbs 
    atoms 2 entry H          line    40 file /apps/gb/PSI4/1.4.0/share/psi4/basis/aug-cc-pvdz.gbs 

  Reading orbitals from file 180, no projection.

  ==> Pre-Iterations <==

   -------------------------------------------------------
    Irrep   Nso     Nmo     Nalpha   Nbeta   Ndocc  Nsocc
   -------------------------------------------------------
     A1        16      16       0       0       0       0
     A2         2       2       0       0       0       0
     B1         7       7       0       0       0       0
     B2         7       7       0       0       0       0
   -------------------------------------------------------
    Total      32      32       5       4       4       1
   -------------------------------------------------------

  ==> Integral Setup <==

  Using in-core PK algorithm.
   Calculation information:
      Number of atoms:                   2
      Number of AO shells:              14
      Number of primitives:             32
      Number of atomic orbitals:        34
      Number of basis functions:        32

      Integral cutoff                 1.00e-12
      Number of threads:                 1

  Performing in-core PK
  Using 279312 doubles for integral storage.
  We computed 5565 shell quartets total.
  Whereas there are 5565 unique shell quartets.

  ==> DiskJK: Disk-Based J/K Matrices <==

    J tasked:                  Yes
    K tasked:                  Yes
    wK tasked:                  No
    Memory [MiB]:             7152
    Schwarz Cutoff:          1E-12

    OpenMP threads:              1

  Minimum eigenvalue in the overlap matrix is 3.4475315278E-03.
  Using Symmetric Orthogonalization.

  SCF Guess: Orbitals guess was supplied from a previous computation.

  ==> Iterations <==

                        Total Energy        Delta E     RMS |[F,P]|

   @UHF iter   0:   -75.40271075916418   -7.54027e+01   1.42212e-04 
   @UHF iter   1:   -75.40349067858912   -7.79919e-04   1.75626e-05 DIIS
   @UHF iter   2:   -75.40349072963663   -5.10475e-08   5.44580e-06 DIIS
   @UHF iter   3:   -75.40349073393298   -4.29635e-09   1.48303e-06 DIIS
   @UHF iter   4:   -75.40349073462478   -6.91799e-10   6.10147e-07 DIIS
   @UHF iter   5:   -75.40349073479720   -1.72420e-10   2.73942e-07 DIIS
   @UHF iter   6:   -75.40349073485248   -5.52802e-11   1.06395e-07 DIIS
   @UHF iter   7:   -75.40349073486128   -8.79652e-12   2.33467e-08 DIIS
   @UHF iter   8:   -75.40349073486162   -3.41061e-13   2.79950e-09 DIIS
   @UHF iter   9:   -75.40349073486169   -7.10543e-14   6.10583e-10 DIIS
   @UHF iter  10:   -75.40349073486162    7.10543e-14   1.87561e-10 DIIS
   @UHF iter  11:   -75.40349073486163   -1.42109e-14   5.48471e-11 DIIS
  Energy and wave function converged.


  ==> Post-Iterations <==

   @Spin Contamination Metric:   6.622961165E-03
   @S^2 Expected:                7.500000000E-01
   @S^2 Observed:                7.566229612E-01
   @S   Expected:                5.000000000E-01
   @S   Observed:                5.000000000E-01

    Orbital Energies [Eh]
    ---------------------

    Alpha Occupied:                                                       

       1A1   -20.651767     2A1    -1.391668     3A1    -0.682906  
       1B2    -0.656941     1B1    -0.561404  

    Alpha Virtual:                                                        

       4A1     0.035637     5A1     0.178327     2B2     0.185247  
       2B1     0.198164     6A1     0.225300     7A1     0.315818  
       3B2     0.385899     3B1     0.396200     8A1     0.624938  
       9A1     0.839442     1A2     0.956599    10A1     0.958309  
       4B2     1.086620     4B1     1.117029    11A1     1.316488  
       5B2     1.327642     5B1     1.386516    12A1     1.660411  
       6B2     2.010514     6B1     2.028213    13A1     2.484430  
      14A1     2.759565    15A1     3.484209     2A2     3.484329  
       7B2     3.591419     7B1     3.651680    16A1     4.089591  

    Beta Occupied:                                                        

       1A1   -20.610847     2A1    -1.233523     3A1    -0.638646  
       1B1    -0.511707  

    Beta Virtual:                                                         

       4A1     0.037112     1B2     0.064600     5A1     0.181781  
       2B1     0.201624     6A1     0.232144     2B2     0.257997  
       7A1     0.320949     3B1     0.395738     3B2     0.408912  
       8A1     0.639761     9A1     0.849513     1A2     0.995283  
      10A1     0.996360     4B1     1.119281     4B2     1.132163  
      11A1     1.331578     5B1     1.409757     5B2     1.498269  
      12A1     1.683494     6B2     2.018222     6B1     2.024817  
      13A1     2.516520    14A1     2.775447     2A2     3.584629  
      15A1     3.585335     7B1     3.670432     7B2     3.688241  
      16A1     4.123812  

    Final Occupation by Irrep:
             A1    A2    B1    B2 
    DOCC [     3,    0,    1,    0 ]
    SOCC [     0,    0,    0,    1 ]

  @UHF Final Energy:   -75.40349073486163

   => Energetics <=

    Nuclear Repulsion Energy =              4.3437228205383889
    One-Electron Energy =                -112.5550183472568477
    Two-Electron Energy =                  32.8078047918568316
    Total Energy =                        -75.4034907348616343

  UHF NO Occupations:
  HONO-2 :    2 A1 1.9992373
  HONO-1 :    3 A1 1.9980089
  HONO-0 :    1 B2 1.0000000
  LUNO+0 :    4 A1 0.0019911
  LUNO+1 :    5 A1 0.0007627
  LUNO+2 :    2 B1 0.0005597
  LUNO+3 :    6 A1 0.0000004


Computation Completed


Properties will be evaluated at   0.000000,   0.000000,   0.000000 [a0]

Properties computed using the SCF density matrix

  Nuclear Dipole Moment: [e a0]
     X:     0.0000      Y:     0.0000      Z:     0.8592

  Electronic Dipole Moment: [e a0]
     X:     0.0000      Y:     0.0000      Z:    -0.1611

  Dipole Moment: [e a0]
     X:     0.0000      Y:     0.0000      Z:     0.6981     Total:     0.6981

  Dipole Moment: [D]
     X:     0.0000      Y:     0.0000      Z:     1.7744     Total:     1.7744


*** tstop() called on c4-9.compute.lan at Tue Feb 23 13:25:46 2021
Module time:
	user time   =       0.34 seconds =       0.01 minutes
	system time =       0.02 seconds =       0.00 minutes
	total time  =          0 seconds =       0.00 minutes
Total time:
	user time   =       1.86 seconds =       0.03 minutes
	system time =       0.31 seconds =       0.01 minutes
	total time  =          2 seconds =       0.03 minutes
 MINTS: Wrapper to libmints.
   by Justin Turney

   Calculation information:
      Number of threads:                 1
      Number of atoms:                   2
      Number of AO shells:              14
      Number of SO shells:              14
      Number of primitives:             32
      Number of atomic orbitals:        34
      Number of basis functions:        32

      Number of irreps:                  4
      Integral cutoff                 0.00e+00
      Number of functions per irrep: [  16    2    7    7 ]

 OEINTS: Overlap, kinetic, potential, dipole, and quadrupole integrals
         stored in file 35.

      Computing two-electron integrals...done
      Computed 33337 non-zero two-electron integrals.
        Stored in file 33.


*** tstart() called on c4-9.compute.lan
*** at Tue Feb 23 13:25:46 2021


 ============================================================================== 
 ============================================================================== 
 ============================================================================== 

                       MP2   
              Program Written by Ugur Bozkaya,
              Latest Revision June 25, 2014.

 ============================================================================== 
 ============================================================================== 
 ============================================================================== 

	RMS orbital gradient is changed to :     1.00e-07
	MAX orbital gradient is changed to :     1.00e-04
	MO spaces per irreps... 

	IRREP   FC   AOCC  BOCC  AVIR    BVIR  FV 
	==========================================
	  A1     0     3     3    13     13     0
	  A2     0     0     0     2      2     0
	  B1     0     1     1     6      6     0
	  B2     0     1     0     6      7     0
	==========================================

	Computing MP2 energy using SCF MOs (Canonical MP2)... 
	============================================================================== 
	Nuclear Repulsion Energy (a.u.)    :     4.34372282053839
	SCF Energy (a.u.)                  :   -75.40349073486163
	REF Energy (a.u.)                  :   -75.40349073486163
	Alpha-Alpha Contribution (a.u.)    :    -0.02719975791784
	Alpha-Beta Contribution (a.u.)     :    -0.12390258716127
	Beta-Beta Contribution (a.u.)      :    -0.01313106095065
	Scaled_SS Correlation Energy (a.u.):    -0.01344360628950
	Scaled_OS Correlation Energy (a.u.):    -0.14868310459352
	SCS-MP2 Total Energy (a.u.)        :   -75.56561744574465
	SOS-MP2 Total Energy (a.u.)        :   -75.40349073486163
	SCSN-MP2 Total Energy (a.u.)       :   -75.47447297607016
	SCS-MP2-VDW Total Energy (a.u.)    :   -75.58225145586229
	SOS-PI-MP2 Total Energy (a.u.)     :   -75.57695435688741
	MP2 Correlation Energy (a.u.)      :    -0.16423340602975
	MP2 Total Energy (a.u.)            :   -75.56772414089139
	============================================================================== 
	Analytic gradient computation is starting...
	Computing response density matrices...
	Computing off-diagonal blocks of GFM...
	Forming independent-pairs...
	Number of alpha independent-pairs: 51
	Number of beta independent-pairs : 45
	Computing orbital gradient...
	Computing diagonal blocks of GFM...
	Solving orbital Z-vector equations...
	Forming relaxed response density matrices...
	Forming relaxed GFM...
	Writing particle density matrices and GFM to disk...
	Necessary information has been sent to DERIV, which will take care of the rest.

*** tstop() called on c4-9.compute.lan at Tue Feb 23 13:25:47 2021
Module time:
	user time   =       0.08 seconds =       0.00 minutes
	system time =       0.07 seconds =       0.00 minutes
	total time  =          1 seconds =       0.02 minutes
Total time:
	user time   =       1.98 seconds =       0.03 minutes
	system time =       0.39 seconds =       0.01 minutes
	total time  =          3 seconds =       0.05 minutes
  Cartesian Displacement SALCs
  By SALC:
  Number of SALCs: 2, nirreps: A1
  Project out translations: False
  Project out rotations: False
	irrep = 0, ncomponent = 1
		0: atom 0, direction z, coef 1.000000
	irrep = 0, ncomponent = 1
		0: atom 1, direction z, coef 1.000000

  By Atomic Center:
  Number of atomic centers: 2
   Atomic Center 0:
	x component, size = 0
	y component, size = 0
	z component, size = 1
		0: salc 0, irrep 0, coef 1.000000
   Atomic Center 1:
	x component, size = 0
	y component, size = 0
	z component, size = 1
		0: salc 1, irrep 0, coef 1.000000

    Molecular point group: c2v
    Full point group: C_inf_v

    Geometry (in Bohr), charge = 0, multiplicity = 2:

       Center              X                  Y                   Z       
    ------------   -----------------  -----------------  -----------------
         O            0.000000000000     0.000000000000    -0.109167689505
         H            0.000000000000     0.000000000000     1.732570453217

	Presorting MO-basis TPDMs.
	Sorting File: MO TPDM (AA|AA) nbuckets = 1
	Sorting File: MO TPDM (AA|aa) nbuckets = 1
	Sorting File: MO TPDM (aa|aa) nbuckets = 1
	Starting first half-transformation.
	Sorting half-transformed TPDMs.
	First half integral transformation complete.


  -Nuclear Repulsion Energy 1st Derivatives:
     Atom            X                  Y                   Z
    ------   -----------------  -----------------  -----------------
       1        0.000000000000     0.000000000000     2.358490992708
       2        0.000000000000     0.000000000000    -2.358490992708


  -Core Hamiltonian Gradient:
     Atom            X                  Y                   Z
    ------   -----------------  -----------------  -----------------
       1        0.000000000000     0.000000000000    -5.811708828084
       2        0.000000000000     0.000000000000     5.811708828084


  -Lagrangian contribution to gradient:
     Atom            X                  Y                   Z
    ------   -----------------  -----------------  -----------------
       1        0.000000000000     0.000000000000     0.421312630910
       2        0.000000000000     0.000000000000    -0.421312630910


  -Two-electron contribution to gradient:
     Atom            X                  Y                   Z
    ------   -----------------  -----------------  -----------------
       1        0.000000000000     0.000000000000     3.031997301332
       2        0.000000000000     0.000000000000    -3.031997301332


  -Total gradient:
     Atom            X                  Y                   Z
    ------   -----------------  -----------------  -----------------
       1        0.000000000000     0.000000000000     0.000092096867
       2        0.000000000000     0.000000000000    -0.000092096867


			-----------------------------------------
			 OPTKING 2.0: for geometry optimizations 
			  - R.A. King,  Bethel University        
			-----------------------------------------

	Previous internal coordinate definitions found.
	---Fragment 1 Geometry and Gradient---
	 O           0.0000000000        0.0000000000       -0.1091676895
	 H           0.0000000000        0.0000000000        1.7325704532
	             0.0000000000        0.0000000000        0.0000920969
	             0.0000000000        0.0000000000       -0.0000920969

	---Fragment 1 Intrafragment Coordinates---
	 - Coordinate -           - BOHR/RAD -       - ANG/DEG -
	 R(1,2)           =         1.841738	       0.974606

	Current energy   :       -75.5677241409

	Energy change for the previous step:
		Projected    :        -0.0000002111
		Actual       :        -0.0000010468

	Performing BFGS update.
	Previous computed or guess Hessian on step 1.
	Steps to be used in Hessian update: 2 1
	Taking RFO optimization step.
	Going to follow RFO solution 1.
	Using RFO vector 1.
	Norm of target step-size    0.00016
	Projected energy change by RFO approximation:        -0.0000000016

	Back-transformation to cartesian coordinates...
	Successfully converged to displaced geometry.

	--- Internal Coordinate Step in ANG or DEG, aJ/ANG or AJ/DEG ---
	 ---------------------------------------------------------------------------
	   Coordinate                Previous        Force       Change         New 
	   ----------                --------       ------       ------       ------
	    1 R(1,2)          =      0.974606     0.000759     0.000087     0.974693
	 ---------------------------------------------------------------------------
	Successfully symmetrized geometry.

  ==> Convergence Check <==

  Measures of convergence in internal coordinates in au.
  Criteria marked as inactive (o), active & met (*), and active & unmet ( ).
  ---------------------------------------------------------------------------------------------
   Step     Total Energy     Delta E     MAX Force     RMS Force      MAX Disp      RMS Disp   
  ---------------------------------------------------------------------------------------------
    Convergence Criteria             o    2.00e-06 *    1.00e-06 *    6.00e-06 *    4.00e-06 *
  ---------------------------------------------------------------------------------------------
      3     -75.56772414   -1.05e-06 o    9.21e-05      9.21e-05      1.65e-04      1.65e-04    ~
  ---------------------------------------------------------------------------------------------

	Writing optimization data to binary file.
	Structure for next step:
	Cartesian Geometry (in Angstrom)
	    O     0.0000000000   0.0000000000  -0.0578125854
	    H     0.0000000000   0.0000000000   0.9168803284
			--------------------------
			 OPTKING Finished Execution 
			--------------------------

    Structure for next step:
    Molecular point group: c2v
    Full point group: C_inf_v

    Geometry (in Angstrom), charge = 0, multiplicity = 2:

    O       
    H             1          R1

    R1        =    0.9746929176

gradient() will perform analytic gradient computation.

*** tstart() called on c4-9.compute.lan
*** at Tue Feb 23 13:25:47 2021

   => Loading Basis Set <=

    Name: AUG-CC-PVDZ
    Role: ORBITAL
    Keyword: BASIS
    atoms 1 entry O          line   254 file /apps/gb/PSI4/1.4.0/share/psi4/basis/aug-cc-pvdz.gbs 
    atoms 2 entry H          line    40 file /apps/gb/PSI4/1.4.0/share/psi4/basis/aug-cc-pvdz.gbs 


         ---------------------------------------------------------
                                   SCF
               by Justin Turney, Rob Parrish, Andy Simmonett
                          and Daniel G. A. Smith
                              UHF Reference
                        1 Threads,   9536 MiB Core
         ---------------------------------------------------------

  ==> Geometry <==

    Molecular point group: c2v
    Full point group: C_inf_v

    Geometry (in Angstrom), charge = 0, multiplicity = 2:

       Center              X                  Y                   Z               Mass       
    ------------   -----------------  -----------------  -----------------  -----------------
         O            0.000000000000     0.000000000000    -0.057774214113    15.994914619570
         H            0.000000000000     0.000000000000     0.916918703536     1.007825032230

  Running in c2v symmetry.

  Rotational constants: A = ************  B =     18.71599  C =     18.71599 [cm^-1]
  Rotational constants: A = ************  B = 561091.14674  C = 561091.14674 [MHz]
  Nuclear repulsion =    4.343334817261223

  Charge       = 0
  Multiplicity = 2
  Electrons    = 9
  Nalpha       = 5
  Nbeta        = 4

  ==> Algorithm <==

  SCF Algorithm Type is PK.
  DIIS enabled.
  MOM disabled.
  Fractional occupation disabled.
  Guess Type is READ.
  Energy threshold   = 1.00e-10
  Density threshold  = 1.00e-10
  Integral threshold = 0.00e+00

  ==> Primary Basis <==

  Basis Set: AUG-CC-PVDZ
    Blend: AUG-CC-PVDZ
    Number of shells: 14
    Number of basis function: 32
    Number of Cartesian functions: 34
    Spherical Harmonics?: true
    Max angular momentum: 2

   => Loading Basis Set <=

    Name: AUG-CC-PVDZ
    Role: ORBITAL
    Keyword: BASIS
    atoms 1 entry O          line   254 file /apps/gb/PSI4/1.4.0/share/psi4/basis/aug-cc-pvdz.gbs 
    atoms 2 entry H          line    40 file /apps/gb/PSI4/1.4.0/share/psi4/basis/aug-cc-pvdz.gbs 

  Reading orbitals from file 180, no projection.

  ==> Pre-Iterations <==

   -------------------------------------------------------
    Irrep   Nso     Nmo     Nalpha   Nbeta   Ndocc  Nsocc
   -------------------------------------------------------
     A1        16      16       0       0       0       0
     A2         2       2       0       0       0       0
     B1         7       7       0       0       0       0
     B2         7       7       0       0       0       0
   -------------------------------------------------------
    Total      32      32       5       4       4       1
   -------------------------------------------------------

  ==> Integral Setup <==

  Using in-core PK algorithm.
   Calculation information:
      Number of atoms:                   2
      Number of AO shells:              14
      Number of primitives:             32
      Number of atomic orbitals:        34
      Number of basis functions:        32

      Integral cutoff                 1.00e-12
      Number of threads:                 1

  Performing in-core PK
  Using 279312 doubles for integral storage.
  We computed 5565 shell quartets total.
  Whereas there are 5565 unique shell quartets.

  ==> DiskJK: Disk-Based J/K Matrices <==

    J tasked:                  Yes
    K tasked:                  Yes
    wK tasked:                  No
    Memory [MiB]:             7152
    Schwarz Cutoff:          1E-12

    OpenMP threads:              1

  Minimum eigenvalue in the overlap matrix is 3.4481308963E-03.
  Using Symmetric Orthogonalization.

  SCF Guess: Orbitals guess was supplied from a previous computation.

  ==> Iterations <==

                        Total Energy        Delta E     RMS |[F,P]|

   @UHF iter   0:   -75.40341813610098   -7.54034e+01   1.26170e-05 
   @UHF iter   1:   -75.40348738521094   -6.92491e-05   1.55915e-06 DIIS
   @UHF iter   2:   -75.40348738561346   -4.02522e-10   4.83142e-07 DIIS
   @UHF iter   3:   -75.40348738564737   -3.39071e-11   1.31794e-07 DIIS
   @UHF iter   4:   -75.40348738565280   -5.42855e-12   5.43234e-08 DIIS
   @UHF iter   5:   -75.40348738565413   -1.33582e-12   2.44156e-08 DIIS
   @UHF iter   6:   -75.40348738565464   -5.11591e-13   9.46991e-09 DIIS
   @UHF iter   7:   -75.40348738565469   -4.26326e-14   2.07548e-09 DIIS
   @UHF iter   8:   -75.40348738565464    4.26326e-14   2.48957e-10 DIIS
   @UHF iter   9:   -75.40348738565467   -2.84217e-14   5.44286e-11 DIIS
  Energy and wave function converged.


  ==> Post-Iterations <==

   @Spin Contamination Metric:   6.624198860E-03
   @S^2 Expected:                7.500000000E-01
   @S^2 Observed:                7.566241989E-01
   @S   Expected:                5.000000000E-01
   @S   Observed:                5.000000000E-01

    Orbital Energies [Eh]
    ---------------------

    Alpha Occupied:                                                       

       1A1   -20.651774     2A1    -1.391643     3A1    -0.682881  
       1B2    -0.656937     1B1    -0.561400  

    Alpha Virtual:                                                        

       4A1     0.035635     5A1     0.178328     2B2     0.185249  
       2B1     0.198166     6A1     0.225292     7A1     0.315802  
       3B2     0.385889     3B1     0.396190     8A1     0.624916  
       9A1     0.839414     1A2     0.956602    10A1     0.958312  
       4B2     1.086621     4B1     1.117030    11A1     1.316479  
       5B2     1.327626     5B1     1.386500    12A1     1.660374  
       6B2     2.010465     6B1     2.028161    13A1     2.484251  
      14A1     2.759555    15A1     3.484211     2A2     3.484332  
       7B2     3.591403     7B1     3.651665    16A1     4.089444  

    Beta Occupied:                                                        

       1A1   -20.610853     2A1    -1.233493     3A1    -0.638622  
       1B1    -0.511703  

    Beta Virtual:                                                         

       4A1     0.037111     1B2     0.064603     5A1     0.181783  
       2B1     0.201626     6A1     0.232136     2B2     0.258002  
       7A1     0.320934     3B1     0.395727     3B2     0.408899  
       8A1     0.639740     9A1     0.849480     1A2     0.995286  
      10A1     0.996363     4B1     1.119281     4B2     1.132162  
      11A1     1.331570     5B1     1.409742     5B2     1.498256  
      12A1     1.683458     6B2     2.018168     6B1     2.024764  
      13A1     2.516337    14A1     2.775438     2A2     3.584633  
      15A1     3.585338     7B1     3.670418     7B2     3.688227  
      16A1     4.123670  

    Final Occupation by Irrep:
             A1    A2    B1    B2 
    DOCC [     3,    0,    1,    0 ]
    SOCC [     0,    0,    0,    1 ]

  @UHF Final Energy:   -75.40348738565467

   => Energetics <=

    Nuclear Repulsion Energy =              4.3433348172612227
    One-Electron Energy =                -112.5543384733891514
    Two-Electron Energy =                  32.8075162704732648
    Total Energy =                        -75.4034873856546710

  UHF NO Occupations:
  HONO-2 :    2 A1 1.9992369
  HONO-1 :    3 A1 1.9980087
  HONO-0 :    1 B2 1.0000000
  LUNO+0 :    4 A1 0.0019913
  LUNO+1 :    5 A1 0.0007631
  LUNO+2 :    2 B1 0.0005597
  LUNO+3 :    6 A1 0.0000004


Computation Completed


Properties will be evaluated at   0.000000,   0.000000,   0.000000 [a0]

Properties computed using the SCF density matrix

  Nuclear Dipole Moment: [e a0]
     X:     0.0000      Y:     0.0000      Z:     0.8593

  Electronic Dipole Moment: [e a0]
     X:     0.0000      Y:     0.0000      Z:    -0.1612

  Dipole Moment: [e a0]
     X:     0.0000      Y:     0.0000      Z:     0.6981     Total:     0.6981

  Dipole Moment: [D]
     X:     0.0000      Y:     0.0000      Z:     1.7745     Total:     1.7745


*** tstop() called on c4-9.compute.lan at Tue Feb 23 13:25:47 2021
Module time:
	user time   =       0.32 seconds =       0.01 minutes
	system time =       0.02 seconds =       0.00 minutes
	total time  =          0 seconds =       0.00 minutes
Total time:
	user time   =       2.47 seconds =       0.04 minutes
	system time =       0.45 seconds =       0.01 minutes
	total time  =          3 seconds =       0.05 minutes
 MINTS: Wrapper to libmints.
   by Justin Turney

   Calculation information:
      Number of threads:                 1
      Number of atoms:                   2
      Number of AO shells:              14
      Number of SO shells:              14
      Number of primitives:             32
      Number of atomic orbitals:        34
      Number of basis functions:        32

      Number of irreps:                  4
      Integral cutoff                 0.00e+00
      Number of functions per irrep: [  16    2    7    7 ]

 OEINTS: Overlap, kinetic, potential, dipole, and quadrupole integrals
         stored in file 35.

      Computing two-electron integrals...done
      Computed 33337 non-zero two-electron integrals.
        Stored in file 33.


*** tstart() called on c4-9.compute.lan
*** at Tue Feb 23 13:25:47 2021


 ============================================================================== 
 ============================================================================== 
 ============================================================================== 

                       MP2   
              Program Written by Ugur Bozkaya,
              Latest Revision June 25, 2014.

 ============================================================================== 
 ============================================================================== 
 ============================================================================== 

	RMS orbital gradient is changed to :     1.00e-07
	MAX orbital gradient is changed to :     1.00e-04
	MO spaces per irreps... 

	IRREP   FC   AOCC  BOCC  AVIR    BVIR  FV 
	==========================================
	  A1     0     3     3    13     13     0
	  A2     0     0     0     2      2     0
	  B1     0     1     1     6      6     0
	  B2     0     1     0     6      7     0
	==========================================

	Computing MP2 energy using SCF MOs (Canonical MP2)... 
	============================================================================== 
	Nuclear Repulsion Energy (a.u.)    :     4.34333481726122
	SCF Energy (a.u.)                  :   -75.40348738565467
	REF Energy (a.u.)                  :   -75.40348738565467
	Alpha-Alpha Contribution (a.u.)    :    -0.02720013877695
	Alpha-Beta Contribution (a.u.)     :    -0.12390528355777
	Beta-Beta Contribution (a.u.)      :    -0.01313134115679
	Scaled_SS Correlation Energy (a.u.):    -0.01344382664458
	Scaled_OS Correlation Energy (a.u.):    -0.14868634026932
	SCS-MP2 Total Energy (a.u.)        :   -75.56561755256857
	SOS-MP2 Total Energy (a.u.)        :   -75.40348738565467
	SCSN-MP2 Total Energy (a.u.)       :   -75.47447079033806
	SCS-MP2-VDW Total Energy (a.u.)    :   -75.58225188857548
	SOS-PI-MP2 Total Energy (a.u.)     :   -75.57695478263555
	MP2 Correlation Energy (a.u.)      :    -0.16423676349151
	MP2 Total Energy (a.u.)            :   -75.56772414914619
	============================================================================== 
	Analytic gradient computation is starting...
	Computing response density matrices...
	Computing off-diagonal blocks of GFM...
	Forming independent-pairs...
	Number of alpha independent-pairs: 51
	Number of beta independent-pairs : 45
	Computing orbital gradient...
	Computing diagonal blocks of GFM...
	Solving orbital Z-vector equations...
	Forming relaxed response density matrices...
	Forming relaxed GFM...
	Writing particle density matrices and GFM to disk...
	Necessary information has been sent to DERIV, which will take care of the rest.

*** tstop() called on c4-9.compute.lan at Tue Feb 23 13:25:47 2021
Module time:
	user time   =       0.07 seconds =       0.00 minutes
	system time =       0.08 seconds =       0.00 minutes
	total time  =          0 seconds =       0.00 minutes
Total time:
	user time   =       2.58 seconds =       0.04 minutes
	system time =       0.53 seconds =       0.01 minutes
	total time  =          3 seconds =       0.05 minutes
  Cartesian Displacement SALCs
  By SALC:
  Number of SALCs: 2, nirreps: A1
  Project out translations: False
  Project out rotations: False
	irrep = 0, ncomponent = 1
		0: atom 0, direction z, coef 1.000000
	irrep = 0, ncomponent = 1
		0: atom 1, direction z, coef 1.000000

  By Atomic Center:
  Number of atomic centers: 2
   Atomic Center 0:
	x component, size = 0
	y component, size = 0
	z component, size = 1
		0: salc 0, irrep 0, coef 1.000000
   Atomic Center 1:
	x component, size = 0
	y component, size = 0
	z component, size = 1
		0: salc 1, irrep 0, coef 1.000000

    Molecular point group: c2v
    Full point group: C_inf_v

    Geometry (in Bohr), charge = 0, multiplicity = 2:

       Center              X                  Y                   Z       
    ------------   -----------------  -----------------  -----------------
         O            0.000000000000     0.000000000000    -0.109177441786
         H            0.000000000000     0.000000000000     1.732725228992

	Presorting MO-basis TPDMs.
	Sorting File: MO TPDM (AA|AA) nbuckets = 1
	Sorting File: MO TPDM (AA|aa) nbuckets = 1
	Sorting File: MO TPDM (aa|aa) nbuckets = 1
	Starting first half-transformation.
	Sorting half-transformed TPDMs.
	First half integral transformation complete.


  -Nuclear Repulsion Energy 1st Derivatives:
     Atom            X                  Y                   Z
    ------   -----------------  -----------------  -----------------
       1        0.000000000000     0.000000000000     2.358069666854
       2        0.000000000000     0.000000000000    -2.358069666854


  -Core Hamiltonian Gradient:
     Atom            X                  Y                   Z
    ------   -----------------  -----------------  -----------------
       1        0.000000000000     0.000000000000    -5.810996164234
       2        0.000000000000     0.000000000000     5.810996164234


  -Lagrangian contribution to gradient:
     Atom            X                  Y                   Z
    ------   -----------------  -----------------  -----------------
       1        0.000000000000     0.000000000000     0.421259538908
       2        0.000000000000     0.000000000000    -0.421259538908


  -Two-electron contribution to gradient:
     Atom            X                  Y                   Z
    ------   -----------------  -----------------  -----------------
       1        0.000000000000     0.000000000000     3.031675150831
       2        0.000000000000     0.000000000000    -3.031675150831


  -Total gradient:
     Atom            X                  Y                   Z
    ------   -----------------  -----------------  -----------------
       1        0.000000000000     0.000000000000     0.000008192360
       2        0.000000000000     0.000000000000    -0.000008192360


			-----------------------------------------
			 OPTKING 2.0: for geometry optimizations 
			  - R.A. King,  Bethel University        
			-----------------------------------------

	Previous internal coordinate definitions found.
	---Fragment 1 Geometry and Gradient---
	 O           0.0000000000        0.0000000000       -0.1091774418
	 H           0.0000000000        0.0000000000        1.7327252290
	             0.0000000000        0.0000000000        0.0000081924
	             0.0000000000        0.0000000000       -0.0000081924

	---Fragment 1 Intrafragment Coordinates---
	 - Coordinate -           - BOHR/RAD -       - ANG/DEG -
	 R(1,2)           =         1.841903	       0.974693

	Current energy   :       -75.5677241491

	Energy change for the previous step:
		Projected    :        -0.0000000016
		Actual       :        -0.0000000083

	Performing BFGS update.
	Previous computed or guess Hessian on step 1.
	Denominators (dg)(dq) or (dq)(dq) are very small.
	 Skipping Hessian update for step 3.
	Steps to be used in Hessian update: 2 1
	Taking RFO optimization step.
	Going to follow RFO solution 1.
	Using RFO vector 1.
	Norm of target step-size    0.00001
	Projected energy change by RFO approximation:        -0.0000000000

	Back-transformation to cartesian coordinates...
	Successfully converged to displaced geometry.

	--- Internal Coordinate Step in ANG or DEG, aJ/ANG or AJ/DEG ---
	 ---------------------------------------------------------------------------
	   Coordinate                Previous        Force       Change         New 
	   ----------                --------       ------       ------       ------
	    1 R(1,2)          =      0.974693     0.000067     0.000008     0.974701
	 ---------------------------------------------------------------------------
	Successfully symmetrized geometry.

  ==> Convergence Check <==

  Measures of convergence in internal coordinates in au.
  Criteria marked as inactive (o), active & met (*), and active & unmet ( ).
  ---------------------------------------------------------------------------------------------
   Step     Total Energy     Delta E     MAX Force     RMS Force      MAX Disp      RMS Disp   
  ---------------------------------------------------------------------------------------------
    Convergence Criteria             o    2.00e-06 *    1.00e-06 *    6.00e-06 *    4.00e-06 *
  ---------------------------------------------------------------------------------------------
      4     -75.56772415   -8.25e-09 o    8.19e-06      8.19e-06      1.46e-05      1.46e-05    ~
  ---------------------------------------------------------------------------------------------

	Writing optimization data to binary file.
	Structure for next step:
	Cartesian Geometry (in Angstrom)
	    O     0.0000000000   0.0000000000  -0.0577780874
	    H     0.0000000000   0.0000000000   0.9169225734
			--------------------------
			 OPTKING Finished Execution 
			--------------------------

    Structure for next step:
    Molecular point group: c2v
    Full point group: C_inf_v

    Geometry (in Angstrom), charge = 0, multiplicity = 2:

    O       
    H             1          R1

    R1        =    0.9747006646

gradient() will perform analytic gradient computation.

*** tstart() called on c4-9.compute.lan
*** at Tue Feb 23 13:25:48 2021

   => Loading Basis Set <=

    Name: AUG-CC-PVDZ
    Role: ORBITAL
    Keyword: BASIS
    atoms 1 entry O          line   254 file /apps/gb/PSI4/1.4.0/share/psi4/basis/aug-cc-pvdz.gbs 
    atoms 2 entry H          line    40 file /apps/gb/PSI4/1.4.0/share/psi4/basis/aug-cc-pvdz.gbs 


         ---------------------------------------------------------
                                   SCF
               by Justin Turney, Rob Parrish, Andy Simmonett
                          and Daniel G. A. Smith
                              UHF Reference
                        1 Threads,   9536 MiB Core
         ---------------------------------------------------------

  ==> Geometry <==

    Molecular point group: c2v
    Full point group: C_inf_v

    Geometry (in Angstrom), charge = 0, multiplicity = 2:

       Center              X                  Y                   Z               Mass       
    ------------   -----------------  -----------------  -----------------  -----------------
         O            0.000000000000     0.000000000000    -0.057774673307    15.994914619570
         H            0.000000000000     0.000000000000     0.916925991292     1.007825032230

  Running in c2v symmetry.

  Rotational constants: A = ************  B =     18.71569  C =     18.71569 [cm^-1]
  Rotational constants: A = ************  B = 561082.22763  C = 561082.22763 [MHz]
  Nuclear repulsion =    4.343300296299659

  Charge       = 0
  Multiplicity = 2
  Electrons    = 9
  Nalpha       = 5
  Nbeta        = 4

  ==> Algorithm <==

  SCF Algorithm Type is PK.
  DIIS enabled.
  MOM disabled.
  Fractional occupation disabled.
  Guess Type is READ.
  Energy threshold   = 1.00e-10
  Density threshold  = 1.00e-10
  Integral threshold = 0.00e+00

  ==> Primary Basis <==

  Basis Set: AUG-CC-PVDZ
    Blend: AUG-CC-PVDZ
    Number of shells: 14
    Number of basis function: 32
    Number of Cartesian functions: 34
    Spherical Harmonics?: true
    Max angular momentum: 2

   => Loading Basis Set <=

    Name: AUG-CC-PVDZ
    Role: ORBITAL
    Keyword: BASIS
    atoms 1 entry O          line   254 file /apps/gb/PSI4/1.4.0/share/psi4/basis/aug-cc-pvdz.gbs 
    atoms 2 entry H          line    40 file /apps/gb/PSI4/1.4.0/share/psi4/basis/aug-cc-pvdz.gbs 

  Reading orbitals from file 180, no projection.

  ==> Pre-Iterations <==

   -------------------------------------------------------
    Irrep   Nso     Nmo     Nalpha   Nbeta   Ndocc  Nsocc
   -------------------------------------------------------
     A1        16      16       0       0       0       0
     A2         2       2       0       0       0       0
     B1         7       7       0       0       0       0
     B2         7       7       0       0       0       0
   -------------------------------------------------------
    Total      32      32       5       4       4       1
   -------------------------------------------------------

  ==> Integral Setup <==

  Using in-core PK algorithm.
   Calculation information:
      Number of atoms:                   2
      Number of AO shells:              14
      Number of primitives:             32
      Number of atomic orbitals:        34
      Number of basis functions:        32

      Integral cutoff                 1.00e-12
      Number of threads:                 1

  Performing in-core PK
  Using 279312 doubles for integral storage.
  We computed 5565 shell quartets total.
  Whereas there are 5565 unique shell quartets.

  ==> DiskJK: Disk-Based J/K Matrices <==

    J tasked:                  Yes
    K tasked:                  Yes
    wK tasked:                  No
    Memory [MiB]:             7152
    Schwarz Cutoff:          1E-12

    OpenMP threads:              1

  Minimum eigenvalue in the overlap matrix is 3.4481842376E-03.
  Using Symmetric Orthogonalization.

  SCF Guess: Orbitals guess was supplied from a previous computation.

  ==> Iterations <==

                        Total Energy        Delta E     RMS |[F,P]|

   @UHF iter   0:   -75.40348092568908   -7.54035e+01   1.12249e-06 
   @UHF iter   1:   -75.40348708697157   -6.16128e-06   1.38720e-07 DIIS
   @UHF iter   2:   -75.40348708697474   -3.16902e-12   4.29835e-08 DIIS
   @UHF iter   3:   -75.40348708697499   -2.55795e-13   1.17271e-08 DIIS
   @UHF iter   4:   -75.40348708697513   -1.42109e-13   4.83469e-09 DIIS
   @UHF iter   5:   -75.40348708697513    0.00000e+00   2.17321e-09 DIIS
   @UHF iter   6:   -75.40348708697515   -1.42109e-14   8.42785e-10 DIIS
   @UHF iter   7:   -75.40348708697505    9.94760e-14   1.84654e-10 DIIS
   @UHF iter   8:   -75.40348708697518   -1.27898e-13   2.21229e-11 DIIS
  Energy and wave function converged.


  ==> Post-Iterations <==

   @Spin Contamination Metric:   6.624309091E-03
   @S^2 Expected:                7.500000000E-01
   @S^2 Observed:                7.566243091E-01
   @S   Expected:                5.000000000E-01
   @S   Observed:                5.000000000E-01

    Orbital Energies [Eh]
    ---------------------

    Alpha Occupied:                                                       

       1A1   -20.651774     2A1    -1.391641     3A1    -0.682879  
       1B2    -0.656937     1B1    -0.561400  

    Alpha Virtual:                                                        

       4A1     0.035635     5A1     0.178328     2B2     0.185249  
       2B1     0.198166     6A1     0.225292     7A1     0.315801  
       3B2     0.385888     3B1     0.396189     8A1     0.624915  
       9A1     0.839411     1A2     0.956603    10A1     0.958312  
       4B2     1.086621     4B1     1.117030    11A1     1.316478  
       5B2     1.327625     5B1     1.386498    12A1     1.660371  
       6B2     2.010461     6B1     2.028157    13A1     2.484235  
      14A1     2.759554    15A1     3.484212     2A2     3.484332  
       7B2     3.591402     7B1     3.651663    16A1     4.089431  

    Beta Occupied:                                                        

       1A1   -20.610854     2A1    -1.233490     3A1    -0.638620  
       1B1    -0.511702  

    Beta Virtual:                                                         

       4A1     0.037110     1B2     0.064603     5A1     0.181784  
       2B1     0.201627     6A1     0.232135     2B2     0.258003  
       7A1     0.320932     3B1     0.395726     3B2     0.408898  
       8A1     0.639738     9A1     0.849477     1A2     0.995286  
      10A1     0.996363     4B1     1.119281     4B2     1.132162  
      11A1     1.331569     5B1     1.409740     5B2     1.498255  
      12A1     1.683455     6B2     2.018164     6B1     2.024760  
      13A1     2.516320    14A1     2.775437     2A2     3.584633  
      15A1     3.585339     7B1     3.670417     7B2     3.688226  
      16A1     4.123657  

    Final Occupation by Irrep:
             A1    A2    B1    B2 
    DOCC [     3,    0,    1,    0 ]
    SOCC [     0,    0,    0,    1 ]

  @UHF Final Energy:   -75.40348708697518

   => Energetics <=

    Nuclear Repulsion Energy =              4.3433002962996587
    One-Electron Energy =                -112.5542779829391122
    Two-Electron Energy =                  32.8074905996642769
    Total Energy =                        -75.4034870869751757

  UHF NO Occupations:
  HONO-2 :    2 A1 1.9992369
  HONO-1 :    3 A1 1.9980087
  HONO-0 :    1 B2 1.0000000
  LUNO+0 :    4 A1 0.0019913
  LUNO+1 :    5 A1 0.0007631
  LUNO+2 :    2 B1 0.0005597
  LUNO+3 :    6 A1 0.0000004


Computation Completed


Properties will be evaluated at   0.000000,   0.000000,   0.000000 [a0]

Properties computed using the SCF density matrix

  Nuclear Dipole Moment: [e a0]
     X:     0.0000      Y:     0.0000      Z:     0.8593

  Electronic Dipole Moment: [e a0]
     X:     0.0000      Y:     0.0000      Z:    -0.1612

  Dipole Moment: [e a0]
     X:     0.0000      Y:     0.0000      Z:     0.6981     Total:     0.6981

  Dipole Moment: [D]
     X:     0.0000      Y:     0.0000      Z:     1.7745     Total:     1.7745


*** tstop() called on c4-9.compute.lan at Tue Feb 23 13:25:48 2021
Module time:
	user time   =       0.31 seconds =       0.01 minutes
	system time =       0.01 seconds =       0.00 minutes
	total time  =          0 seconds =       0.00 minutes
Total time:
	user time   =       3.05 seconds =       0.05 minutes
	system time =       0.58 seconds =       0.01 minutes
	total time  =          4 seconds =       0.07 minutes
 MINTS: Wrapper to libmints.
   by Justin Turney

   Calculation information:
      Number of threads:                 1
      Number of atoms:                   2
      Number of AO shells:              14
      Number of SO shells:              14
      Number of primitives:             32
      Number of atomic orbitals:        34
      Number of basis functions:        32

      Number of irreps:                  4
      Integral cutoff                 0.00e+00
      Number of functions per irrep: [  16    2    7    7 ]

 OEINTS: Overlap, kinetic, potential, dipole, and quadrupole integrals
         stored in file 35.

      Computing two-electron integrals...done
      Computed 33337 non-zero two-electron integrals.
        Stored in file 33.


*** tstart() called on c4-9.compute.lan
*** at Tue Feb 23 13:25:48 2021


 ============================================================================== 
 ============================================================================== 
 ============================================================================== 

                       MP2   
              Program Written by Ugur Bozkaya,
              Latest Revision June 25, 2014.

 ============================================================================== 
 ============================================================================== 
 ============================================================================== 

	RMS orbital gradient is changed to :     1.00e-07
	MAX orbital gradient is changed to :     1.00e-04
	MO spaces per irreps... 

	IRREP   FC   AOCC  BOCC  AVIR    BVIR  FV 
	==========================================
	  A1     0     3     3    13     13     0
	  A2     0     0     0     2      2     0
	  B1     0     1     1     6      6     0
	  B2     0     1     0     6      7     0
	==========================================

	Computing MP2 energy using SCF MOs (Canonical MP2)... 
	============================================================================== 
	Nuclear Repulsion Energy (a.u.)    :     4.34330029629966
	SCF Energy (a.u.)                  :   -75.40348708697518
	REF Energy (a.u.)                  :   -75.40348708697518
	Alpha-Alpha Contribution (a.u.)    :    -0.02720017265670
	Alpha-Beta Contribution (a.u.)     :    -0.12390552348279
	Beta-Beta Contribution (a.u.)      :    -0.01313136609167
	Scaled_SS Correlation Energy (a.u.):    -0.01344384624946
	Scaled_OS Correlation Energy (a.u.):    -0.14868662817934
	SCS-MP2 Total Energy (a.u.)        :   -75.56561756140398
	SOS-MP2 Total Energy (a.u.)        :   -75.40348708697518
	SCSN-MP2 Total Energy (a.u.)       :   -75.47447059517231
	SCS-MP2-VDW Total Energy (a.u.)    :   -75.58225192640732
	SOS-PI-MP2 Total Energy (a.u.)     :   -75.57695481985108
	MP2 Correlation Energy (a.u.)      :    -0.16423706223115
	MP2 Total Energy (a.u.)            :   -75.56772414920633
	============================================================================== 
	Analytic gradient computation is starting...
	Computing response density matrices...
	Computing off-diagonal blocks of GFM...
	Forming independent-pairs...
	Number of alpha independent-pairs: 51
	Number of beta independent-pairs : 45
	Computing orbital gradient...
	Computing diagonal blocks of GFM...
	Solving orbital Z-vector equations...
	Forming relaxed response density matrices...
	Forming relaxed GFM...
	Writing particle density matrices and GFM to disk...
	Necessary information has been sent to DERIV, which will take care of the rest.

*** tstop() called on c4-9.compute.lan at Tue Feb 23 13:25:48 2021
Module time:
	user time   =       0.06 seconds =       0.00 minutes
	system time =       0.11 seconds =       0.00 minutes
	total time  =          0 seconds =       0.00 minutes
Total time:
	user time   =       3.16 seconds =       0.05 minutes
	system time =       0.70 seconds =       0.01 minutes
	total time  =          4 seconds =       0.07 minutes
  Cartesian Displacement SALCs
  By SALC:
  Number of SALCs: 2, nirreps: A1
  Project out translations: False
  Project out rotations: False
	irrep = 0, ncomponent = 1
		0: atom 0, direction z, coef 1.000000
	irrep = 0, ncomponent = 1
		0: atom 1, direction z, coef 1.000000

  By Atomic Center:
  Number of atomic centers: 2
   Atomic Center 0:
	x component, size = 0
	y component, size = 0
	z component, size = 1
		0: salc 0, irrep 0, coef 1.000000
   Atomic Center 1:
	x component, size = 0
	y component, size = 0
	z component, size = 1
		0: salc 1, irrep 0, coef 1.000000

    Molecular point group: c2v
    Full point group: C_inf_v

    Geometry (in Bohr), charge = 0, multiplicity = 2:

       Center              X                  Y                   Z       
    ------------   -----------------  -----------------  -----------------
         O            0.000000000000     0.000000000000    -0.109178309539
         H            0.000000000000     0.000000000000     1.732739000857

	Presorting MO-basis TPDMs.
	Sorting File: MO TPDM (AA|AA) nbuckets = 1
	Sorting File: MO TPDM (AA|aa) nbuckets = 1
	Sorting File: MO TPDM (aa|aa) nbuckets = 1
	Starting first half-transformation.
	Sorting half-transformed TPDMs.
	First half integral transformation complete.


  -Nuclear Repulsion Energy 1st Derivatives:
     Atom            X                  Y                   Z
    ------   -----------------  -----------------  -----------------
       1        0.000000000000     0.000000000000     2.358032182980
       2        0.000000000000     0.000000000000    -2.358032182980


  -Core Hamiltonian Gradient:
     Atom            X                  Y                   Z
    ------   -----------------  -----------------  -----------------
       1        0.000000000000     0.000000000000    -5.810932753649
       2        0.000000000000     0.000000000000     5.810932753649


  -Lagrangian contribution to gradient:
     Atom            X                  Y                   Z
    ------   -----------------  -----------------  -----------------
       1        0.000000000000     0.000000000000     0.421254814510
       2        0.000000000000     0.000000000000    -0.421254814510


  -Two-electron contribution to gradient:
     Atom            X                  Y                   Z
    ------   -----------------  -----------------  -----------------
       1        0.000000000000     0.000000000000     3.031646485177
       2        0.000000000000     0.000000000000    -3.031646485177


  -Total gradient:
     Atom            X                  Y                   Z
    ------   -----------------  -----------------  -----------------
       1        0.000000000000     0.000000000000     0.000000729017
       2        0.000000000000     0.000000000000    -0.000000729017


			-----------------------------------------
			 OPTKING 2.0: for geometry optimizations 
			  - R.A. King,  Bethel University        
			-----------------------------------------

	Previous internal coordinate definitions found.
	---Fragment 1 Geometry and Gradient---
	 O           0.0000000000        0.0000000000       -0.1091783095
	 H           0.0000000000        0.0000000000        1.7327390009
	             0.0000000000        0.0000000000        0.0000007290
	             0.0000000000        0.0000000000       -0.0000007290

	---Fragment 1 Intrafragment Coordinates---
	 - Coordinate -           - BOHR/RAD -       - ANG/DEG -
	 R(1,2)           =         1.841917	       0.974701

	Current energy   :       -75.5677241492

	Energy change for the previous step:
		Projected    :        -0.0000000000
		Actual       :        -0.0000000001

	Performing BFGS update.
	Previous computed or guess Hessian on step 1.
	Denominators (dg)(dq) or (dq)(dq) are very small.
	 Skipping Hessian update for step 4.
	Denominators (dg)(dq) or (dq)(dq) are very small.
	 Skipping Hessian update for step 3.
	Steps to be used in Hessian update: 2 1
	Taking RFO optimization step.
	Going to follow RFO solution 1.
	Using RFO vector 1.
	Norm of target step-size    0.00000
	Projected energy change by RFO approximation:        -0.0000000000

	Back-transformation to cartesian coordinates...
	Successfully converged to displaced geometry.

	--- Internal Coordinate Step in ANG or DEG, aJ/ANG or AJ/DEG ---
	 ---------------------------------------------------------------------------
	   Coordinate                Previous        Force       Change         New 
	   ----------                --------       ------       ------       ------
	    1 R(1,2)          =      0.974701     0.000006     0.000001     0.974701
	 ---------------------------------------------------------------------------
	Successfully symmetrized geometry.

  ==> Convergence Check <==

  Measures of convergence in internal coordinates in au.
  Criteria marked as inactive (o), active & met (*), and active & unmet ( ).
  ---------------------------------------------------------------------------------------------
   Step     Total Energy     Delta E     MAX Force     RMS Force      MAX Disp      RMS Disp   
  ---------------------------------------------------------------------------------------------
    Convergence Criteria             o    2.00e-06 *    1.00e-06 *    6.00e-06 *    4.00e-06 *
  ---------------------------------------------------------------------------------------------
      5     -75.56772415   -6.01e-11 o    7.29e-07 *    7.29e-07 *    1.30e-06 *    1.30e-06 *  ~
  ---------------------------------------------------------------------------------------------


  **** Optimization is complete! (in 5 steps) ****

  ==> Optimization Summary <==

  Measures of convergence in internal coordinates in au.
  --------------------------------------------------------------------------------------------------------------- ~
   Step         Total Energy             Delta E       MAX Force       RMS Force        MAX Disp        RMS Disp  ~
  --------------------------------------------------------------------------------------------------------------- ~
      1     -75.567028294555    -75.567028294555      0.02834240      0.02834240      0.04861682      0.04861682  ~
      2     -75.567723094111     -0.000694799556      0.00103975      0.00103975      0.00185143      0.00185143  ~
      3     -75.567724140891     -0.000001046781      0.00009210      0.00009210      0.00016453      0.00016453  ~
      4     -75.567724149146     -0.000000008255      0.00000819      0.00000819      0.00001464      0.00001464  ~
      5     -75.567724149206     -0.000000000060      0.00000073      0.00000073      0.00000130      0.00000130  ~
  --------------------------------------------------------------------------------------------------------------- ~

	Writing optimization data to binary file.
	Final energy is    -75.5677241492063
	Final (previous) structure:
	Cartesian Geometry (in Angstrom)
	    O     0.0000000000   0.0000000000  -0.0577746731
	    H     0.0000000000   0.0000000000   0.9169259877
	Saving final (previous) structure.
			--------------------------
			 OPTKING Finished Execution 
			--------------------------

    Final optimized geometry and variables:
    Molecular point group: c2v
    Full point group: C_inf_v

    Geometry (in Angstrom), charge = 0, multiplicity = 2:

    O       
    H             1          R1

    R1        =    0.9747006646

	Removing binary optimization data file.
	Cleaning optimization helper files.

    Psi4 stopped on: Tuesday, 23 February 2021 01:25PM
    Psi4 wall time for execution: 0:00:04.56

*** Psi4 exiting successfully. Buy a developer a beer!
