
    -----------------------------------------------------------------------
          Psi4: An Open-Source Ab Initio Electronic Structure Package
                               Psi4 1.3.2 release

                         Git: Rev {HEAD} ecbda83 


    R. M. Parrish, L. A. Burns, D. G. A. Smith, A. C. Simmonett,
    A. E. DePrince III, E. G. Hohenstein, U. Bozkaya, A. Yu. Sokolov,
    R. Di Remigio, R. M. Richard, J. F. Gonthier, A. M. James,
    H. R. McAlexander, A. Kumar, M. Saitow, X. Wang, B. P. Pritchard,
    P. Verma, H. F. Schaefer III, K. Patkowski, R. A. King, E. F. Valeev,
    F. A. Evangelista, J. M. Turney, T. D. Crawford, and C. D. Sherrill,
    J. Chem. Theory Comput. 13(7) pp 3185--3197 (2017).
    (doi: 10.1021/acs.jctc.7b00174)


                         Additional Contributions by
    P. Kraus, H. Kruse, M. H. Lechner, M. C. Schieber, R. A. Shaw,
    A. Alenaizan, R. Galvelis, Z. L. Glick, S. Lehtola, and J. P. Misiewicz

    -----------------------------------------------------------------------


    Psi4 started on: Tuesday, 09 March 2021 02:40PM

    Process ID: 31332
    Host:       d1-14.compute.lan
    PSIDATADIR: /apps/gb/PSI4/1.3.2/share/psi4
    Memory:     500.0 MiB
    Threads:    12
    
  ==> Input File <==

--------------------------------------------------------------------------
memory 4 GB

molecule  {
0 3
O   -1.558088525294   -0.023120912104    0.000000000000 
H   -0.595019690094   -0.015116889232    0.000000000000          
H   -1.819321420177    0.899205370870    0.000000000000
O    1.710213964231   -0.032584699566    0.000000000000
}
set {
basis aug-cc-pvtz
reference uhf
e_convergence 10
scf_type pk
freeze_core true
}

set ccenergy {
e_convergence 10
r_convergence 10
}

e = energy('ccsd(t)')

print_out('Stephenergy {}'.format(e))

--------------------------------------------------------------------------

  Memory set to   3.725 GiB by Python driver.

*** tstart() called on d1-14.compute.lan
*** at Tue Mar  9 14:40:30 2021

   => Loading Basis Set <=

    Name: AUG-CC-PVTZ
    Role: ORBITAL
    Keyword: BASIS
    atoms 1, 4 entry O          line   327 file /apps/gb/PSI4/1.3.2/share/psi4/basis/aug-cc-pvtz.gbs 
    atoms 2-3  entry H          line    36 file /apps/gb/PSI4/1.3.2/share/psi4/basis/aug-cc-pvtz.gbs 


         ---------------------------------------------------------
                                   SCF
               by Justin Turney, Rob Parrish, Andy Simmonett
                          and Daniel G. A. Smith
                              UHF Reference
                       12 Threads,   3814 MiB Core
         ---------------------------------------------------------

  ==> Geometry <==

    Molecular point group: cs
    Full point group: Cs

    Geometry (in Angstrom), charge = 0, multiplicity = 3:

       Center              X                  Y                   Z               Mass       
    ------------   -----------------  -----------------  -----------------  -----------------
         O           -1.558088525294    -0.023120912104     0.000000000000    15.994914619570
         H           -0.595019690094    -0.015116889232     0.000000000000     1.007825032230
         H           -1.819321420177     0.899205370870     0.000000000000     1.007825032230
         O            1.710213964231    -0.032584699566     0.000000000000    15.994914619570

  Running in cs symmetry.

  Rotational constants: A =     21.13846  B =      0.18867  C =      0.18700 [cm^-1]
  Rotational constants: A = 633715.21369  B =   5656.28946  C =   5606.25030 [MHz]
  Nuclear repulsion =   22.516534065490166

  Charge       = 0
  Multiplicity = 3
  Electrons    = 18
  Nalpha       = 10
  Nbeta        = 8

  ==> Algorithm <==

  SCF Algorithm Type is PK.
  DIIS enabled.
  MOM disabled.
  Fractional occupation disabled.
  Guess Type is SAD.
  Energy threshold   = 1.00e-10
  Density threshold  = 1.00e-08
  Integral threshold = 0.00e+00

  ==> Primary Basis <==

  Basis Set: AUG-CC-PVTZ
    Blend: AUG-CC-PVTZ
    Number of shells: 46
    Number of basis function: 138
    Number of Cartesian functions: 160
    Spherical Harmonics?: true
    Max angular momentum: 3

  ==> Pre-Iterations <==

   -------------------------------------------------------
    Irrep   Nso     Nmo     Nalpha   Nbeta   Ndocc  Nsocc
   -------------------------------------------------------
     A'        92      92       0       0       0       0
     A"        46      46       0       0       0       0
   -------------------------------------------------------
    Total     138     138      10       8       8       2
   -------------------------------------------------------

  ==> Integral Setup <==

  Using in-core PK algorithm.
   Calculation information:
      Number of atoms:                   4
      Number of AO shells:              46
      Number of primitives:             82
      Number of atomic orbitals:       160
      Number of basis functions:       138

      Integral cutoff                 1.00e-12
      Number of threads:                12

  Performing in-core PK
  Using 91996872 doubles for integral storage.
  We computed 896852 shell quartets total.
  Whereas there are 584821 unique shell quartets.
    53.35 percent of shell quartets recomputed by reordering.

  ==> DiskJK: Disk-Based J/K Matrices <==

    J tasked:                  Yes
    K tasked:                  Yes
    wK tasked:                  No
    Memory [MiB]:             2861
    Schwarz Cutoff:          1E-12

    OpenMP threads:             12

  Minimum eigenvalue in the overlap matrix is 3.0922406873E-04.
  Using Symmetric Orthogonalization.

  SCF Guess: Superposition of Atomic Densities via on-the-fly atomic UHF.

  ==> Iterations <==

                        Total Energy        Delta E     RMS |[F,P]|

   @UHF iter SAD:  -149.39606813701795   -1.49396e+02   0.00000e+00 
   @UHF iter   1:  -150.76553829570773   -1.36947e+00   5.02591e-03 DIIS
   @UHF iter   2:  -150.83890478652489   -7.33665e-02   3.25269e-03 DIIS
   @UHF iter   3:  -150.87343967295536   -3.45349e-02   3.90779e-04 DIIS
   @UHF iter   4:  -150.87455014334273   -1.11047e-03   1.30048e-04 DIIS
   @UHF iter   5:  -150.87467687550560   -1.26732e-04   5.11089e-05 DIIS
   @UHF iter   6:  -150.87471073944357   -3.38639e-05   1.48927e-05 DIIS
   @UHF iter   7:  -150.87471393690276   -3.19746e-06   3.88232e-06 DIIS
   @UHF iter   8:  -150.87471422876979   -2.91867e-07   1.93067e-06 DIIS
   @UHF iter   9:  -150.87471435093809   -1.22168e-07   1.71897e-06 DIIS
   @UHF iter  10:  -150.87471447121035   -1.20272e-07   1.69346e-06 DIIS
   @UHF iter  11:  -150.87471476877181   -2.97561e-07   1.65983e-06 DIIS
   @UHF iter  12:  -150.87471579605315   -1.02728e-06   1.56291e-06 DIIS
   @UHF iter  13:  -150.87471789747184   -2.10142e-06   1.34507e-06 DIIS
   @UHF iter  14:  -150.87472094902009   -3.05155e-06   1.33140e-06 DIIS
   @UHF iter  15:  -150.87472103256837   -8.35483e-08   1.13470e-06 DIIS
   @UHF iter  16:  -150.87472219930615   -1.16674e-06   1.23191e-06 DIIS
   @UHF iter  17:  -150.87472221609124   -1.67851e-08   1.03837e-07 DIIS
   @UHF iter  18:  -150.87472222175407   -5.66283e-09   3.01660e-07 DIIS
   @UHF iter  19:  -150.87472222225045   -4.96385e-10   3.47407e-08 DIIS
   @UHF iter  20:  -150.87472222225747   -7.02016e-12   1.39789e-08 DIIS
   @UHF iter  21:  -150.87472222225836   -8.81073e-13   1.73773e-09 DIIS
  Energy and wave function converged.


  ==> Post-Iterations <==

   @Spin Contamination Metric:   9.377927592E-03
   @S^2 Expected:                2.000000000E+00
   @S^2 Observed:                2.009377928E+00
   @S   Expected:                1.000000000E+00
   @S   Observed:                1.000000000E+00

    Orbital Energies [Eh]
    ---------------------

    Alpha Occupied:                                                       

       1Ap   -20.733464     2Ap   -20.558933     3Ap    -1.442559  
       4Ap    -1.343548     5Ap    -0.733245     1App   -0.733123  
       6Ap    -0.712119     7Ap    -0.635580     8Ap    -0.574138  
       2App   -0.502317  

    Alpha Virtual:                                                        

       9Ap     0.034512    10Ap     0.053290    11Ap     0.127941  
       3App    0.131778    12Ap     0.148018    13Ap     0.160941  
      14Ap     0.183138     4App    0.185163    15Ap     0.210010  
      16Ap     0.240104    17Ap     0.270455     5App    0.282165  
      18Ap     0.293221     6App    0.322318    19Ap     0.368358  
      20Ap     0.390809    21Ap     0.459638    22Ap     0.558587  
       7App    0.601022    23Ap     0.607996    24Ap     0.645663  
      25Ap     0.666325     8App    0.704237    26Ap     0.713263  
       9App    0.734129    10App    0.746708    27Ap     0.763788  
      28Ap     0.794646    11App    0.824396    29Ap     0.846943  
      30Ap     0.859442    12App    0.880017    31Ap     0.919669  
      32Ap     0.939168    13App    0.942349    33Ap     0.953767  
      14App    0.980155    34Ap     0.986056    35Ap     1.043203  
      36Ap     1.118927    37Ap     1.171944    15App    1.172033  
      38Ap     1.193887    16App    1.243956    39Ap     1.268878  
      40Ap     1.305359    17App    1.527327    41Ap     1.558239  
      18App    1.600522    42Ap     1.665679    43Ap     1.806117  
      44Ap     1.815974    19App    1.976713    45Ap     1.976763  
      46Ap     2.001975    20App    2.010846    47Ap     2.019325  
      21App    2.042320    48Ap     2.054609    22App    2.112496  
      49Ap     2.151617    50Ap     2.159007    23App    2.194542  
      51Ap     2.282981    24App    2.291630    52Ap     2.326249  
      53Ap     2.401841    25App    2.440893    54Ap     2.458683  
      26App    2.500069    55Ap     2.514502    56Ap     2.597226  
      57Ap     2.665339    27App    2.727850    58Ap     2.742732  
      59Ap     2.866044    60Ap     2.941158    28App    2.944725  
      61Ap     3.696544    62Ap     3.868254    29App    4.029426  
      30App    4.056753    63Ap     4.074068    31App    4.165377  
      64Ap     4.206806    65Ap     4.267468    32App    4.310949  
      66Ap     4.377191    33App    4.392907    34App    4.435869  
      67Ap     4.441054    68Ap     4.566626    69Ap     4.777647  
      70Ap     4.948621    35App    5.161305    71Ap     5.171054  
      72Ap     5.317119    73Ap     5.376793    36App    5.525593  
      74Ap     5.702802    75Ap     6.186799    37App    6.311619  
      76Ap     6.311650    38App    6.370137    77Ap     6.372435  
      39App    6.501943    78Ap     6.518200    79Ap     6.546938  
      80Ap     6.617551    40App    6.721683    81Ap     6.812716  
      41App    6.818428    82Ap     6.902908    42App    6.930939  
      83Ap     6.961105    84Ap     7.046635    43App    7.147798  
      44App    7.274511    45App    7.325091    85Ap     7.332543  
      86Ap     7.358948    46App    7.434144    87Ap     7.659575  
      88Ap     7.946789    89Ap     7.964414    90Ap     8.808333  
      91Ap     9.260459    92Ap    16.510597  

    Beta Occupied:                                                        

       1Ap   -20.654693     2Ap   -20.559047     3Ap    -1.344024  
       4Ap    -1.100065     5Ap    -0.711565     6Ap    -0.579258  
       7Ap    -0.541600     1App   -0.502368  

    Beta Virtual:                                                         

       8Ap     0.034268     9Ap     0.046635     2App    0.048529  
      10Ap     0.057899    11Ap     0.144078    12Ap     0.151240  
       3App    0.160125    13Ap     0.179638    14Ap     0.209475  
      15Ap     0.217912     4App    0.226335    16Ap     0.249473  
      17Ap     0.272481     5App    0.282457    18Ap     0.295618  
       6App    0.325155    19Ap     0.371922    20Ap     0.400133  
      21Ap     0.460263    22Ap     0.561189     7App    0.633485  
      23Ap     0.638621    24Ap     0.648377    25Ap     0.669468  
      26Ap     0.713966     8App    0.717968     9App    0.735256  
      10App    0.748029    27Ap     0.780823    28Ap     0.806410  
      29Ap     0.852292    11App    0.864270    30Ap     0.915732  
      12App    0.933015    31Ap     0.939349    13App    0.950024  
      32Ap     0.950210    33Ap     0.974436    34Ap     1.014052  
      14App    1.023990    35Ap     1.046031    36Ap     1.135288  
      15App    1.175347    37Ap     1.178290    38Ap     1.230288  
      16App    1.254511    39Ap     1.270526    40Ap     1.316066  
      17App    1.528177    41Ap     1.564974    18App    1.601871  
      42Ap     1.694869    43Ap     1.810344    44Ap     1.820176  
      45Ap     2.011909    19App    2.014843    46Ap     2.015141  
      20App    2.047093    47Ap     2.059971    21App    2.156782  
      22App    2.179135    48Ap     2.179785    49Ap     2.196896  
      50Ap     2.209550    23App    2.236119    24App    2.293414  
      51Ap     2.307616    52Ap     2.335589    53Ap     2.412042  
      25App    2.443208    54Ap     2.459670    26App    2.508813  
      55Ap     2.522136    56Ap     2.603420    57Ap     2.675048  
      27App    2.728785    58Ap     2.747805    59Ap     2.870472  
      60Ap     2.943678    28App    2.945432    61Ap     3.696998  
      62Ap     3.870303    29App    4.029766    30App    4.142025  
      63Ap     4.190138    64Ap     4.242463    31App    4.250268  
      65Ap     4.285038    32App    4.311031    33App    4.393089  
      66Ap     4.394862    34App    4.437416    67Ap     4.469713  
      68Ap     4.567554    69Ap     4.779303    70Ap     4.950286  
      35App    5.161285    71Ap     5.171479    72Ap     5.317326  
      73Ap     5.377663    36App    5.525631    74Ap     5.703300  
      75Ap     6.187352    37App    6.420583    76Ap     6.420603  
      38App    6.445836    77Ap     6.448335    78Ap     6.533811  
      39App    6.557284    79Ap     6.587137    80Ap     6.664443  
      40App    6.725267    81Ap     6.903252    41App    7.005016  
      82Ap     7.005626    42App    7.039351    83Ap     7.067983  
      84Ap     7.127693    43App    7.150061    44App    7.274931  
      45App    7.325861    85Ap     7.332536    86Ap     7.359444  
      46App    7.434592    87Ap     7.661332    88Ap     7.947081  
      89Ap     7.964642    90Ap     8.810711    91Ap     9.335168  
      92Ap    16.511068  

    Final Occupation by Irrep:
             Ap   App 
    DOCC [     7,    1 ]
    SOCC [     1,    1 ]

  @UHF Final Energy:  -150.87472222225836

   => Energetics <=

    Nuclear Repulsion Energy =             22.5165340654901662
    One-Electron Energy =                -252.8208640872357478
    Two-Electron Energy =                  79.4296077994872434
    Total Energy =                       -150.8747222222583559

  UHF NO Occupations:
  HONO-2 :    7 Ap 1.9970326
  HONO-1 :    2App 1.0000000
  HONO-0 :    8 Ap 1.0000000
  LUNO+0 :    9 Ap 0.0029674
  LUNO+1 :   10 Ap 0.0017233
  LUNO+2 :   11 Ap 0.0000024
  LUNO+3 :   12 Ap 0.0000014


Computation Completed


Properties will be evaluated at   0.000000,   0.000000,   0.000000 [a0]

Properties computed using the SCF density matrix

  Nuclear Dipole Moment: [e a0]
     X:    -2.2626      Y:     0.8285      Z:     0.0000

  Electronic Dipole Moment: [e a0]
     X:     2.8151      Y:    -0.2173      Z:     0.0000

  Dipole Moment: [e a0]
     X:     0.5524      Y:     0.6112      Z:     0.0000     Total:     0.8239

  Dipole Moment: [D]
     X:     1.4041      Y:     1.5536      Z:     0.0000     Total:     2.0941


*** tstop() called on d1-14.compute.lan at Tue Mar  9 14:40:37 2021
Module time:
	user time   =      52.29 seconds =       0.87 minutes
	system time =       3.30 seconds =       0.06 minutes
	total time  =          7 seconds =       0.12 minutes
Total time:
	user time   =      52.29 seconds =       0.87 minutes
	system time =       3.30 seconds =       0.06 minutes
	total time  =          7 seconds =       0.12 minutes
 MINTS: Wrapper to libmints.
   by Justin Turney

   Calculation information:
      Number of threads:                12
      Number of atoms:                   4
      Number of AO shells:              46
      Number of SO shells:              46
      Number of primitives:             82
      Number of atomic orbitals:       160
      Number of basis functions:       138

      Number of irreps:                  2
      Integral cutoff                 0.00e+00
      Number of functions per irrep: [  92   46 ]

 OEINTS: Overlap, kinetic, potential, dipole, and quadrupole integrals
         stored in file 35.

      Computing two-electron integrals...done
      Computed 22939529 non-zero two-electron integrals.
        Stored in file 33.


*** tstart() called on d1-14.compute.lan
*** at Tue Mar  9 14:40:42 2021


	Wfn Parameters:
	--------------------
	Wavefunction         = CCSD_T
	Number of irreps     = 2
	Number of MOs        = 138
	Number of active MOs = 136
	AO-Basis             = NONE
	Semicanonical        = false
	Reference            = UHF
	Print Level          = 1

	IRREP	# MOs	# FZDC	# DOCC	# SOCC	# VIRT	# FZVR
	-----	-----	------	------	------	------	------
	 Ap	   92	    2	    5	    1	    84	    0
	 App	   46	    0	    1	    1	    44	    0
	Transforming integrals...
	IWL integrals will be deleted.
	(OO|OO)...
	Presorting SO-basis two-electron integrals.
	Sorting File: SO Ints (nn|nn) nbuckets = 1
	Transforming the one-electron integrals and constructing Fock matrices
	Starting AA/AB first half-transformation.
	Sorting AA/AB half-transformed integrals.
	Starting BB first half-transformation.
	Sorting BB half-transformed integrals.
	First half integral transformation complete.
	Starting AA second half-transformation.
	Starting AB second half-transformation.
	Starting BB second half-transformation.
	Two-electron integral transformation complete.
	(OO|OV)...
	Starting AA second half-transformation.
	Starting AB second half-transformation.
	Starting BB second half-transformation.
	Two-electron integral transformation complete.
	(OO|VV)...
	Starting AA second half-transformation.
	Starting AB second half-transformation.
	Starting BB second half-transformation.
	Two-electron integral transformation complete.
	(OV|OO)...
	Starting AA/AB first half-transformation.
	Sorting AA/AB half-transformed integrals.
	Starting BB first half-transformation.
	Sorting BB half-transformed integrals.
	First half integral transformation complete.
	Starting AA second half-transformation.
	Starting AB second half-transformation.
	Starting BB second half-transformation.
	Two-electron integral transformation complete.
	(OV|OV)...
	Starting AA second half-transformation.
	Starting AB second half-transformation.
	Starting BB second half-transformation.
	Two-electron integral transformation complete.
	(OV|VV)...
	Starting AA second half-transformation.
	Starting AB second half-transformation.
	Starting BB second half-transformation.
	Two-electron integral transformation complete.
	(VV|OO)...
	Starting AA/AB first half-transformation.
	Sorting AA/AB half-transformed integrals.
	Starting BB first half-transformation.
	Sorting BB half-transformed integrals.
	First half integral transformation complete.
	Starting AA second half-transformation.
	Starting AB second half-transformation.
	Starting BB second half-transformation.
	Two-electron integral transformation complete.
	(VV|OV)...
	Starting AA second half-transformation.
	Starting AB second half-transformation.
	Starting BB second half-transformation.
	Two-electron integral transformation complete.
	(VV|VV)...
	Starting AA second half-transformation.
	Starting AB second half-transformation.
	Starting BB second half-transformation.
	Two-electron integral transformation complete.
	Frozen core energy     =   -125.69645140871143

	Size of irrep 0 of <AB|CD> integrals:     19.643 (MW) /    157.141 (MB)
	Size of irrep 1 of <AB|CD> integrals:     13.660 (MW) /    109.283 (MB)
	Total:                                    33.303 (MW) /    266.424 (MB)

	Size of irrep 0 of <ab|cd> integrals:     20.794 (MW) /    166.349 (MB)
	Size of irrep 1 of <ab|cd> integrals:     14.631 (MW) /    117.045 (MB)
	Total:                                    35.424 (MW) /    283.394 (MB)

	Size of irrep 0 of <Ab|Cd> integrals:     83.174 (MW) /    665.395 (MB)
	Size of irrep 1 of <Ab|Cd> integrals:     56.550 (MW) /    452.403 (MB)
	Total:                                   139.725 (MW) /   1117.798 (MB)

	Size of irrep 0 of <IA|BC> integrals:      5.323 (MW) /     42.586 (MB)
	Size of irrep 1 of <IA|BC> integrals:      3.193 (MW) /     25.547 (MB)
	Total:                                     8.517 (MW) /     68.133 (MB)

	Size of irrep 0 of <ia|bc> integrals:      4.348 (MW) /     34.780 (MB)
	Size of irrep 1 of <ia|bc> integrals:      2.372 (MW) /     18.972 (MB)
	Total:                                     6.719 (MW) /     53.752 (MB)

	Size of irrep 0 of <Ia|Bc> integrals:      5.472 (MW) /     43.776 (MB)
	Size of irrep 1 of <Ia|Bc> integrals:      3.309 (MW) /     26.470 (MB)
	Total:                                     8.781 (MW) /     70.246 (MB)

	Size of irrep 0 of <iA|bC> integrals:      4.232 (MW) /     33.853 (MB)
	Size of irrep 1 of <iA|bC> integrals:      2.286 (MW) /     18.289 (MB)
	Total:                                     6.518 (MW) /     52.142 (MB)

	Size of irrep 0 of tIjAb amplitudes:       0.292 (MW) /      2.335 (MB)
	Size of irrep 1 of tIjAb amplitudes:       0.120 (MW) /      0.963 (MB)
	Total:                                     0.412 (MW) /      3.297 (MB)

	Nuclear Rep. energy          =     22.51653406549017
	SCF energy                   =   -150.87472222225836
	One-electron energy          =    -83.93409929099158
	Two-electron (AA) energy     =     10.05760027300228
	Two-electron (BB) energy     =      5.35251942231783
	Two-electron (AB) energy     =     20.82917471663207
	Two-electron energy          =     36.23929441195219
	Reference energy             =   -150.87472222226069

*** tstop() called on d1-14.compute.lan at Tue Mar  9 14:41:50 2021
Module time:
	user time   =     370.63 seconds =       6.18 minutes
	system time =      73.00 seconds =       1.22 minutes
	total time  =         68 seconds =       1.13 minutes
Total time:
	user time   =     429.38 seconds =       7.16 minutes
	system time =      77.21 seconds =       1.29 minutes
	total time  =         80 seconds =       1.33 minutes
            **************************
            *                        *
            *        CCENERGY        *
            *                        *
            **************************

    Nuclear Rep. energy (wfn)     =   22.516534065490166
    SCF energy          (wfn)     = -150.874722222258356
    Reference energy    (file100) = -150.874722222260687

    Input parameters:
    -----------------
    Wave function   =     CCSD_T
    Reference wfn   =     UHF
    Brueckner       =     No
    Memory (Mbytes) =     4000.0
    Maxiter         =     50
    R_Convergence   =     1.0e-10
    E_Convergence   =     1.0e-10
    Restart         =     Yes
    DIIS            =     Yes
    AO Basis        =     NONE
    ABCD            =     NEW
    Cache Level     =     2
    Cache Type      =     LRU
    Print Level     =     1
    Num. of threads =     12
    # Amps to Print =     10
    Print MP2 Amps? =     No
    Analyze T2 Amps =     No
    Print Pair Ener =     No
    Local CC        =     No
    SCS-MP2         =     False
    SCSN-MP2        =     False
    SCS-CCSD        =     False

MP2 correlation energy -0.4162209859515656
                Solving CC Amplitude Equations
                ------------------------------
  Iter             Energy              RMS        T1Diag      D1Diag    New D1Diag    D2Diag
  ----     ---------------------    ---------   ----------  ----------  ----------   --------
     0        -0.416220985951566    0.000e+00    0.000000    0.000000    0.000000    0.000000
     1        -0.427018868457141    5.666e-02    0.010485    0.000000    0.000000    0.000000
     2        -0.435088679867819    1.683e-02    0.010971    0.000000    0.000000    0.000000
     3        -0.437198168207367    8.511e-03    0.012823    0.000000    0.000000    0.000000
     4        -0.437072921830136    2.523e-03    0.013182    0.000000    0.000000    0.000000
     5        -0.437059312770696    1.300e-03    0.013333    0.000000    0.000000    0.000000
     6        -0.437086021844820    5.081e-04    0.013351    0.000000    0.000000    0.000000
     7        -0.437090595761422    2.493e-04    0.013344    0.000000    0.000000    0.000000
     8        -0.437091227718326    8.627e-05    0.013338    0.000000    0.000000    0.000000
     9        -0.437092560075003    5.935e-05    0.013339    0.000000    0.000000    0.000000
    10        -0.437091186264051    4.977e-05    0.013339    0.000000    0.000000    0.000000
    11        -0.437091281943874    4.751e-05    0.013340    0.000000    0.000000    0.000000
    12        -0.437091101710686    4.627e-05    0.013341    0.000000    0.000000    0.000000
    13        -0.437091058057207    4.546e-05    0.013343    0.000000    0.000000    0.000000
    14        -0.437091781813597    4.431e-05    0.013351    0.000000    0.000000    0.000000
    15        -0.437092015620081    4.091e-05    0.013380    0.000000    0.000000    0.000000
    16        -0.437091844927495    3.129e-05    0.013479    0.000000    0.000000    0.000000
    17        -0.437091630236243    1.675e-05    0.013546    0.000000    0.000000    0.000000
    18        -0.437091516999386    7.878e-06    0.013568    0.000000    0.000000    0.000000
    19        -0.437091754964366    3.420e-06    0.013574    0.000000    0.000000    0.000000
    20        -0.437091866973929    1.521e-06    0.013575    0.000000    0.000000    0.000000
    21        -0.437091872290913    5.803e-07    0.013575    0.000000    0.000000    0.000000
    22        -0.437091872319659    2.381e-07    0.013575    0.000000    0.000000    0.000000
    23        -0.437091872059428    1.132e-07    0.013575    0.000000    0.000000    0.000000
    24        -0.437091871734013    4.246e-08    0.013575    0.000000    0.000000    0.000000
    25        -0.437091872557628    2.120e-08    0.013575    0.000000    0.000000    0.000000
    26        -0.437091872918208    1.181e-08    0.013575    0.000000    0.000000    0.000000
    27        -0.437091873001248    9.619e-09    0.013575    0.000000    0.000000    0.000000
    28        -0.437091872996321    9.023e-09    0.013575    0.000000    0.000000    0.000000
    29        -0.437091872941453    8.567e-09    0.013575    0.000000    0.000000    0.000000
    30        -0.437091872830440    7.990e-09    0.013575    0.000000    0.000000    0.000000
    31        -0.437091872870222    6.549e-09    0.013575    0.000000    0.000000    0.000000
    32        -0.437091873011466    3.945e-09    0.013575    0.000000    0.000000    0.000000
    33        -0.437091873050490    1.694e-09    0.013575    0.000000    0.000000    0.000000
    34        -0.437091873068208    7.399e-10    0.013575    0.000000    0.000000    0.000000
    35        -0.437091873069864    3.298e-10    0.013575    0.000000    0.000000    0.000000
    36        -0.437091873067953    1.300e-10    0.013575    0.000000    0.000000    0.000000
    37        -0.437091873066659    5.086e-11    0.013575    0.000000    0.000000    0.000000

    Iterations converged.


    Largest TIA Amplitudes:
              7  87        -0.0125576763
              7  84        -0.0116632489
              4   3         0.0094497098
              7  85        -0.0093231423
              6  84        -0.0080901820
              4  10         0.0076177954
              5   2        -0.0070452069
              2   2         0.0068246953
              5   9        -0.0066668664
              2   4         0.0060539895

    Largest Tia Amplitudes:
              5  86        -0.0126250248
              5  89        -0.0122939805
              5  85        -0.0089458704
              3   3         0.0080802264
              4   1        -0.0075194549
              3  11         0.0073348567
              3  10        -0.0058698088
              4   4        -0.0056179940
              5  88        -0.0055432250
              1  41        -0.0051196214

    Largest TIJAB Amplitudes:
      6   2  92  21        -0.0139458624
      4   2  29  21         0.0091595362
      4   2  41  40        -0.0083785797
      6   2 101  38        -0.0083583027
      6   2 102  38         0.0081988669
      6   4  92  29         0.0081579439
      6   4 103  41         0.0081530906
      6   2 111  54        -0.0079826643
      7   5  90  17        -0.0076652530
      6   2 111  21         0.0075035393

    Largest Tijab Amplitudes:
      4   1  91  85        -0.0075980143
      5   3  92  18        -0.0075720535
      4   1 106  85        -0.0067906866
      5   2 100  17         0.0066758692
      5   3  89  11         0.0065064785
      5   2  93  17         0.0060448038
      5   2  89  13         0.0057719072
      3   2  17  16         0.0056375046
      5   2  86  13         0.0055032499
      4   1  91  87        -0.0053795854

    Largest TIjAb Amplitudes:
      3   2  12  13        -0.0182098219
      4   1 103  85        -0.0148701736
      6   1  38  85        -0.0148218438
      2   1  88  85        -0.0145031560
      5   3  10  11        -0.0144063335
      2   1 102  85        -0.0143321990
      2   1  38   1        -0.0141293012
      6   1  14  85         0.0135302223
      2   1 101  85         0.0134182927
      4   4  29  30        -0.0130925843

    SCF energy       (wfn)                    = -150.874722222258356
    Reference energy (file100)                = -150.874722222260687

    Opposite-spin MP2 correlation energy      =   -0.314394484569426
    Same-spin MP2 correlation energy          =   -0.101826501382140
    MP2 correlation energy                    =   -0.416220985951566
      * MP2 total energy                      = -151.290943208212241

    Opposite-spin CCSD correlation energy     =   -0.341965579637794
    Same-spin CCSD correlation energy         =   -0.095126293428865
    CCSD correlation energy                   =   -0.437091873066659
      * CCSD total energy                     = -151.311814095327350

            **************************
            *                        *
            *        CCTRIPLES       *
            *                        *
            **************************


    Wave function   =    CCSD_T
    Reference wfn   =      UHF

    Nuclear Rep. energy (wfn)                =   22.516534065490166
    SCF energy          (wfn)                = -150.874722222258356
    Reference energy    (file100)            = -150.874722222260687
    CCSD energy         (file100)            =   -0.437091873066659
    Total CCSD energy   (file100)            = -151.311814095327350

    Number of ijk index combinations:
    Spin Case AAA:                                  56
    Spin Case BBB:                                  20
    Spin Case AAB:                                 168
    Spin Case ABB:                                 120
    AAA (T) energy                             =   -0.000397325183183
    BBB (T) energy                             =   -0.000201105009040
    AAB (T) energy                             =   -0.006719740449537
    ABB (T) energy                             =   -0.004986287885088
    (T) energy                                   =   -0.012304458526848
      * CCSD(T) total energy                     = -151.324118553854191

Stephenergy -151.3241185538542
    Psi4 stopped on: Tuesday, 09 March 2021 02:44PM
    Psi4 wall time for execution: 0:04:27.42

*** Psi4 exiting successfully. Buy a developer a beer!
