
    -----------------------------------------------------------------------
          Psi4: An Open-Source Ab Initio Electronic Structure Package
                               Psi4 1.3.2 release

                         Git: Rev {HEAD} ecbda83 


    R. M. Parrish, L. A. Burns, D. G. A. Smith, A. C. Simmonett,
    A. E. DePrince III, E. G. Hohenstein, U. Bozkaya, A. Yu. Sokolov,
    R. Di Remigio, R. M. Richard, J. F. Gonthier, A. M. James,
    H. R. McAlexander, A. Kumar, M. Saitow, X. Wang, B. P. Pritchard,
    P. Verma, H. F. Schaefer III, K. Patkowski, R. A. King, E. F. Valeev,
    F. A. Evangelista, J. M. Turney, T. D. Crawford, and C. D. Sherrill,
    J. Chem. Theory Comput. 13(7) pp 3185--3197 (2017).
    (doi: 10.1021/acs.jctc.7b00174)


                         Additional Contributions by
    P. Kraus, H. Kruse, M. H. Lechner, M. C. Schieber, R. A. Shaw,
    A. Alenaizan, R. Galvelis, Z. L. Glick, S. Lehtola, and J. P. Misiewicz

    -----------------------------------------------------------------------


    Psi4 started on: Monday, 08 March 2021 09:42AM

    Process ID: 216514
    Host:       c5-20.compute.lan
    PSIDATADIR: /apps/gb/PSI4/1.3.2/share/psi4
    Memory:     500.0 MiB
    Threads:    12
    
  ==> Input File <==

--------------------------------------------------------------------------
memory 4 GB

molecule  {
0 1
O    0.000000000000    0.000000000000   -0.066001357603
H    0.000000000000   -0.757069608368    0.523744720497
H   -0.000000000000    0.757069608368    0.523744720497
}
set {
basis aug-cc-pvtz
reference uhf
e_convergence 10
scf_type pk
freeze_core true
}

set ccenergy {
e_convergence 10
r_convergence 10
}

e = energy('ccsd(t)')

print_out('Stephenergy {}'.format(e))

--------------------------------------------------------------------------

  Memory set to   3.725 GiB by Python driver.

*** tstart() called on c5-20.compute.lan
*** at Mon Mar  8 09:42:48 2021

   => Loading Basis Set <=

    Name: AUG-CC-PVTZ
    Role: ORBITAL
    Keyword: BASIS
    atoms 1   entry O          line   327 file /apps/gb/PSI4/1.3.2/share/psi4/basis/aug-cc-pvtz.gbs 
    atoms 2-3 entry H          line    36 file /apps/gb/PSI4/1.3.2/share/psi4/basis/aug-cc-pvtz.gbs 


         ---------------------------------------------------------
                                   SCF
               by Justin Turney, Rob Parrish, Andy Simmonett
                          and Daniel G. A. Smith
                              UHF Reference
                       12 Threads,   3814 MiB Core
         ---------------------------------------------------------

  ==> Geometry <==

    Molecular point group: c2v
    Full point group: C2v

    Geometry (in Angstrom), charge = 0, multiplicity = 1:

       Center              X                  Y                   Z               Mass       
    ------------   -----------------  -----------------  -----------------  -----------------
         O            0.000000000000     0.000000000000    -0.066001357603    15.994914619570
         H            0.000000000000    -0.757069608368     0.523744720497     1.007825032230
         H           -0.000000000000     0.757069608368     0.523744720497     1.007825032230

  Running in c2v symmetry.

  Rotational constants: A =     27.07676  B =     14.59183  C =      9.48195 [cm^-1]
  Rotational constants: A = 811740.73975  B = 437452.03173  C = 284261.67998 [MHz]
  Nuclear repulsion =    9.172199372440410

  Charge       = 0
  Multiplicity = 1
  Electrons    = 10
  Nalpha       = 5
  Nbeta        = 5

  ==> Algorithm <==

  SCF Algorithm Type is PK.
  DIIS enabled.
  MOM disabled.
  Fractional occupation disabled.
  Guess Type is SAD.
  Energy threshold   = 1.00e-10
  Density threshold  = 1.00e-08
  Integral threshold = 0.00e+00

  ==> Primary Basis <==

  Basis Set: AUG-CC-PVTZ
    Blend: AUG-CC-PVTZ
    Number of shells: 32
    Number of basis function: 92
    Number of Cartesian functions: 105
    Spherical Harmonics?: true
    Max angular momentum: 3

  ==> Pre-Iterations <==

   -------------------------------------------------------
    Irrep   Nso     Nmo     Nalpha   Nbeta   Ndocc  Nsocc
   -------------------------------------------------------
     A1        35      35       0       0       0       0
     A2        12      12       0       0       0       0
     B1        18      18       0       0       0       0
     B2        27      27       0       0       0       0
   -------------------------------------------------------
    Total      92      92       5       5       5       0
   -------------------------------------------------------

  ==> Integral Setup <==

  Using in-core PK algorithm.
   Calculation information:
      Number of atoms:                   3
      Number of AO shells:              32
      Number of primitives:             52
      Number of atomic orbitals:       105
      Number of basis functions:        92

      Integral cutoff                 1.00e-12
      Number of threads:                12

  Performing in-core PK
  Using 18305562 doubles for integral storage.
  We computed 240258 shell quartets total.
  Whereas there are 139656 unique shell quartets.
    72.04 percent of shell quartets recomputed by reordering.

  ==> DiskJK: Disk-Based J/K Matrices <==

    J tasked:                  Yes
    K tasked:                  Yes
    wK tasked:                  No
    Memory [MiB]:             2861
    Schwarz Cutoff:          1E-12

    OpenMP threads:             12

  Minimum eigenvalue in the overlap matrix is 3.8724569690E-04.
  Using Symmetric Orthogonalization.

  SCF Guess: Superposition of Atomic Densities via on-the-fly atomic UHF.

  ==> Iterations <==

                        Total Energy        Delta E     RMS |[F,P]|

   @UHF iter SAD:   -75.47562873119924   -7.54756e+01   0.00000e+00 
   @UHF iter   1:   -75.97604123695453   -5.00413e-01   9.51908e-03 DIIS
   @UHF iter   2:   -76.02853567272726   -5.24944e-02   6.49095e-03 DIIS
   @UHF iter   3:   -76.06000226552337   -3.14666e-02   4.40817e-04 DIIS
   @UHF iter   4:   -76.06039111822207   -3.88853e-04   1.05548e-04 DIIS
   @UHF iter   5:   -76.06041541828753   -2.43001e-05   2.39539e-05 DIIS
   @UHF iter   6:   -76.06041740390972   -1.98562e-06   5.24458e-06 DIIS
   @UHF iter   7:   -76.06041750862960   -1.04720e-07   9.45648e-07 DIIS
   @UHF iter   8:   -76.06041751162468   -2.99508e-09   1.58544e-07 DIIS
   @UHF iter   9:   -76.06041751169039   -6.57110e-11   3.89070e-08 DIIS
   @UHF iter  10:   -76.06041751169431   -3.92220e-12   5.70406e-09 DIIS
  Energy and wave function converged.


  ==> Post-Iterations <==

   @Spin Contamination Metric:   6.661338148E-14
   @S^2 Expected:                0.000000000E+00
   @S^2 Observed:                6.661338148E-14
   @S   Expected:                0.000000000E+00
   @S   Observed:                0.000000000E+00

    Orbital Energies [Eh]
    ---------------------

    Alpha Occupied:                                                       

       1A1   -20.567774     2A1    -1.352603     1B2    -0.715836  
       3A1    -0.585168     1B1    -0.510265  

    Alpha Virtual:                                                        

       4A1     0.029391     2B2     0.047697     5A1     0.135902  
       2B1     0.158690     6A1     0.175206     3B2     0.183065  
       4B2     0.227296     7A1     0.244992     1A2     0.265385  
       3B1     0.300144     8A1     0.310224     5B2     0.365837  
       9A1     0.437682     6B2     0.466351     7B2     0.599319  
      10A1     0.658583    11A1     0.708062     2A2     0.722578  
       4B1     0.731603    12A1     0.831007     5B1     0.846457  
      13A1     0.891859     8B2     0.912830     6B1     0.918131  
       3A2     0.922536     9B2     0.930916    14A1     0.961639  
      15A1     1.021536    10B2     1.043680     7B1     1.082742  
      11B2     1.108824     4A2     1.176503    16A1     1.182280  
      12B2     1.260384     5A2     1.510639    17A1     1.535145  
       8B1     1.583692    18A1     1.804382    13B2     1.821237  
      14B2     1.986116    19A1     2.118691     9B1     2.262767  
       6A2     2.316058    20A1     2.326331    21A1     2.418539  
      10B1     2.420787    15B2     2.442925    22A1     2.479437  
      16B2     2.676250    11B1     2.697649    23A1     2.772264  
      17B2     2.816220     7A2     2.884714    18B2     3.654611  
      24A1     3.743481     8A2     4.018654    12B1     4.084444  
      25A1     4.164976    19B2     4.249109    13B1     4.288316  
      26A1     4.374374     9A2     4.377836    14B1     4.405974  
      20B2     4.518110    27A1     4.726202    21B2     4.846534  
      22B2     5.150233    10A2     5.151932    23B2     5.252748  
      28A1     5.328575    15B1     5.525173    29A1     5.664864  
      30A1     6.178946    24B2     6.512954    16B1     6.709376  
      31A1     6.899920    17B1     7.132837    18B1     7.252521  
      25B2     7.303366    11A2     7.314619    32A1     7.328113  
      12A2     7.355083    33A1     7.535325    34A1     7.899208  
      26B2     7.926455    27B2     8.806858    35A1    15.757507  

    Beta Occupied:                                                        

       1A1   -20.567774     2A1    -1.352603     1B2    -0.715836  
       3A1    -0.585168     1B1    -0.510265  

    Beta Virtual:                                                         

       4A1     0.029391     2B2     0.047697     5A1     0.135902  
       2B1     0.158690     6A1     0.175206     3B2     0.183065  
       4B2     0.227296     7A1     0.244992     1A2     0.265385  
       3B1     0.300144     8A1     0.310224     5B2     0.365837  
       9A1     0.437682     6B2     0.466351     7B2     0.599319  
      10A1     0.658583    11A1     0.708062     2A2     0.722578  
       4B1     0.731603    12A1     0.831007     5B1     0.846457  
      13A1     0.891859     8B2     0.912830     6B1     0.918131  
       3A2     0.922536     9B2     0.930916    14A1     0.961639  
      15A1     1.021536    10B2     1.043680     7B1     1.082742  
      11B2     1.108824     4A2     1.176503    16A1     1.182280  
      12B2     1.260384     5A2     1.510639    17A1     1.535145  
       8B1     1.583692    18A1     1.804382    13B2     1.821237  
      14B2     1.986116    19A1     2.118691     9B1     2.262767  
       6A2     2.316058    20A1     2.326331    21A1     2.418539  
      10B1     2.420787    15B2     2.442925    22A1     2.479437  
      16B2     2.676250    11B1     2.697649    23A1     2.772264  
      17B2     2.816220     7A2     2.884714    18B2     3.654611  
      24A1     3.743481     8A2     4.018654    12B1     4.084444  
      25A1     4.164976    19B2     4.249109    13B1     4.288316  
      26A1     4.374374     9A2     4.377836    14B1     4.405974  
      20B2     4.518110    27A1     4.726202    21B2     4.846534  
      22B2     5.150233    10A2     5.151932    23B2     5.252748  
      28A1     5.328575    15B1     5.525173    29A1     5.664864  
      30A1     6.178946    24B2     6.512954    16B1     6.709376  
      31A1     6.899920    17B1     7.132837    18B1     7.252521  
      25B2     7.303366    11A2     7.314619    32A1     7.328113  
      12A2     7.355083    33A1     7.535325    34A1     7.899208  
      26B2     7.926455    27B2     8.806858    35A1    15.757507  

    Final Occupation by Irrep:
             A1    A2    B1    B2 
    DOCC [     3,    0,    1,    1 ]
    SOCC [     0,    0,    0,    0 ]

  @UHF Final Energy:   -76.06041751169431

   => Energetics <=

    Nuclear Repulsion Energy =              9.1721993724404101
    One-Electron Energy =                -123.0019429402638025
    Two-Electron Energy =                  37.7693260561290884
    Total Energy =                        -76.0604175116942969

  UHF NO Occupations:
  HONO-2 :    1 B1 2.0000000
  HONO-1 :    1 B2 2.0000000
  HONO-0 :    3 A1 2.0000000
  LUNO+0 :    4 A1 0.0000000
  LUNO+1 :    5 A1 0.0000000
  LUNO+2 :    2 B1 0.0000000
  LUNO+3 :    6 A1 0.0000000


Computation Completed


Properties will be evaluated at   0.000000,   0.000000,   0.000000 [a0]

Properties computed using the SCF density matrix

  Nuclear Dipole Moment: [e a0]
     X:     0.0000      Y:     0.0000      Z:     0.9817

  Electronic Dipole Moment: [e a0]
     X:     0.0000      Y:     0.0000      Z:    -0.1986

  Dipole Moment: [e a0]
     X:     0.0000      Y:     0.0000      Z:     0.7830     Total:     0.7830

  Dipole Moment: [D]
     X:     0.0000      Y:     0.0000      Z:     1.9903     Total:     1.9903


*** tstop() called on c5-20.compute.lan at Mon Mar  8 09:42:51 2021
Module time:
	user time   =      11.53 seconds =       0.19 minutes
	system time =       0.39 seconds =       0.01 minutes
	total time  =          3 seconds =       0.05 minutes
Total time:
	user time   =      11.53 seconds =       0.19 minutes
	system time =       0.39 seconds =       0.01 minutes
	total time  =          3 seconds =       0.05 minutes
 MINTS: Wrapper to libmints.
   by Justin Turney

   Calculation information:
      Number of threads:                12
      Number of atoms:                   3
      Number of AO shells:              32
      Number of SO shells:              23
      Number of primitives:             52
      Number of atomic orbitals:       105
      Number of basis functions:        92

      Number of irreps:                  4
      Integral cutoff                 0.00e+00
      Number of functions per irrep: [  35   12   18   27 ]

 OEINTS: Overlap, kinetic, potential, dipole, and quadrupole integrals
         stored in file 35.

      Computing two-electron integrals...done
      Computed 2248440 non-zero two-electron integrals.
        Stored in file 33.


*** tstart() called on c5-20.compute.lan
*** at Mon Mar  8 09:42:52 2021


	Wfn Parameters:
	--------------------
	Wavefunction         = CCSD_T
	Number of irreps     = 4
	Number of MOs        = 92
	Number of active MOs = 91
	AO-Basis             = NONE
	Semicanonical        = false
	Reference            = UHF
	Print Level          = 1

	IRREP	# MOs	# FZDC	# DOCC	# SOCC	# VIRT	# FZVR
	-----	-----	------	------	------	------	------
	 A1	   35	    1	    2	    0	    32	    0
	 A2	   12	    0	    0	    0	    12	    0
	 B1	   18	    0	    1	    0	    17	    0
	 B2	   27	    0	    1	    0	    26	    0
	Transforming integrals...
	IWL integrals will be deleted.
	(OO|OO)...
	Presorting SO-basis two-electron integrals.
	Sorting File: SO Ints (nn|nn) nbuckets = 1
	Transforming the one-electron integrals and constructing Fock matrices
	Starting AA/AB first half-transformation.
	Sorting AA/AB half-transformed integrals.
	Starting BB first half-transformation.
	Sorting BB half-transformed integrals.
	First half integral transformation complete.
	Starting AA second half-transformation.
	Starting AB second half-transformation.
	Starting BB second half-transformation.
	Two-electron integral transformation complete.
	(OO|OV)...
	Starting AA second half-transformation.
	Starting AB second half-transformation.
	Starting BB second half-transformation.
	Two-electron integral transformation complete.
	(OO|VV)...
	Starting AA second half-transformation.
	Starting AB second half-transformation.
	Starting BB second half-transformation.
	Two-electron integral transformation complete.
	(OV|OO)...
	Starting AA/AB first half-transformation.
	Sorting AA/AB half-transformed integrals.
	Starting BB first half-transformation.
	Sorting BB half-transformed integrals.
	First half integral transformation complete.
	Starting AA second half-transformation.
	Starting AB second half-transformation.
	Starting BB second half-transformation.
	Two-electron integral transformation complete.
	(OV|OV)...
	Starting AA second half-transformation.
	Starting AB second half-transformation.
	Starting BB second half-transformation.
	Two-electron integral transformation complete.
	(OV|VV)...
	Starting AA second half-transformation.
	Starting AB second half-transformation.
	Starting BB second half-transformation.
	Two-electron integral transformation complete.
	(VV|OO)...
	Starting AA/AB first half-transformation.
	Sorting AA/AB half-transformed integrals.
	Starting BB first half-transformation.
	Sorting BB half-transformed integrals.
	First half integral transformation complete.
	Starting AA second half-transformation.
	Starting AB second half-transformation.
	Starting BB second half-transformation.
	Two-electron integral transformation complete.
	(VV|OV)...
	Starting AA second half-transformation.
	Starting AB second half-transformation.
	Starting BB second half-transformation.
	Two-electron integral transformation complete.
	(VV|VV)...
	Starting AA second half-transformation.
	Starting AB second half-transformation.
	Starting BB second half-transformation.
	Two-electron integral transformation complete.
	Frozen core energy     =    -61.31113296087126

	Size of irrep 0 of <AB|CD> integrals:      1.047 (MW) /      8.372 (MB)
	Size of irrep 1 of <AB|CD> integrals:      0.682 (MW) /      5.458 (MB)
	Size of irrep 2 of <AB|CD> integrals:      0.733 (MW) /      5.862 (MB)
	Size of irrep 3 of <AB|CD> integrals:      1.073 (MW) /      8.586 (MB)
	Total:                                     3.535 (MW) /     28.279 (MB)

	Size of irrep 0 of <ab|cd> integrals:      1.047 (MW) /      8.372 (MB)
	Size of irrep 1 of <ab|cd> integrals:      0.682 (MW) /      5.458 (MB)
	Size of irrep 2 of <ab|cd> integrals:      0.733 (MW) /      5.862 (MB)
	Size of irrep 3 of <ab|cd> integrals:      1.073 (MW) /      8.586 (MB)
	Total:                                     3.535 (MW) /     28.279 (MB)

	Size of irrep 0 of <Ab|Cd> integrals:      4.550 (MW) /     36.398 (MB)
	Size of irrep 1 of <Ab|Cd> integrals:      2.729 (MW) /     21.833 (MB)
	Size of irrep 2 of <Ab|Cd> integrals:      2.931 (MW) /     23.448 (MB)
	Size of irrep 3 of <Ab|Cd> integrals:      4.293 (MW) /     34.345 (MB)
	Total:                                    14.503 (MW) /    116.023 (MB)

	Size of irrep 0 of <IA|BC> integrals:      0.228 (MW) /      1.826 (MB)
	Size of irrep 1 of <IA|BC> integrals:      0.111 (MW) /      0.885 (MB)
	Size of irrep 2 of <IA|BC> integrals:      0.134 (MW) /      1.068 (MB)
	Size of irrep 3 of <IA|BC> integrals:      0.199 (MW) /      1.591 (MB)
	Total:                                     0.671 (MW) /      5.371 (MB)

	Size of irrep 0 of <ia|bc> integrals:      0.228 (MW) /      1.826 (MB)
	Size of irrep 1 of <ia|bc> integrals:      0.111 (MW) /      0.885 (MB)
	Size of irrep 2 of <ia|bc> integrals:      0.134 (MW) /      1.068 (MB)
	Size of irrep 3 of <ia|bc> integrals:      0.199 (MW) /      1.591 (MB)
	Total:                                     0.671 (MW) /      5.371 (MB)

	Size of irrep 0 of <Ia|Bc> integrals:      0.228 (MW) /      1.826 (MB)
	Size of irrep 1 of <Ia|Bc> integrals:      0.111 (MW) /      0.885 (MB)
	Size of irrep 2 of <Ia|Bc> integrals:      0.134 (MW) /      1.068 (MB)
	Size of irrep 3 of <Ia|Bc> integrals:      0.199 (MW) /      1.591 (MB)
	Total:                                     0.671 (MW) /      5.371 (MB)

	Size of irrep 0 of <iA|bC> integrals:      0.228 (MW) /      1.826 (MB)
	Size of irrep 1 of <iA|bC> integrals:      0.111 (MW) /      0.885 (MB)
	Size of irrep 2 of <iA|bC> integrals:      0.134 (MW) /      1.068 (MB)
	Size of irrep 3 of <iA|bC> integrals:      0.199 (MW) /      1.591 (MB)
	Total:                                     0.671 (MW) /      5.371 (MB)

	Size of irrep 0 of tIjAb amplitudes:       0.013 (MW) /      0.102 (MB)
	Size of irrep 1 of tIjAb amplitudes:       0.003 (MW) /      0.026 (MB)
	Size of irrep 2 of tIjAb amplitudes:       0.007 (MW) /      0.055 (MB)
	Size of irrep 3 of tIjAb amplitudes:       0.008 (MW) /      0.066 (MB)
	Total:                                     0.031 (MW) /      0.250 (MB)

	Nuclear Rep. energy          =      9.17219937244041
	SCF energy                   =    -76.06041751169431
	One-electron energy          =    -41.51522458597634
	Two-electron (AA) energy     =      3.41996766362808
	Two-electron (BB) energy     =      3.41996766362810
	Two-electron (AB) energy     =     10.75380533545635
	Two-electron energy          =     17.59374066271253
	Reference energy             =    -76.06041751169467

*** tstop() called on c5-20.compute.lan at Mon Mar  8 09:42:57 2021
Module time:
	user time   =       2.37 seconds =       0.04 minutes
	system time =       2.35 seconds =       0.04 minutes
	total time  =          5 seconds =       0.08 minutes
Total time:
	user time   =      15.41 seconds =       0.26 minutes
	system time =       2.86 seconds =       0.05 minutes
	total time  =          9 seconds =       0.15 minutes
            **************************
            *                        *
            *        CCENERGY        *
            *                        *
            **************************

    Nuclear Rep. energy (wfn)     =    9.172199372440410
    SCF energy          (wfn)     =  -76.060417511694311
    Reference energy    (file100) =  -76.060417511694666

    Input parameters:
    -----------------
    Wave function   =     CCSD_T
    Reference wfn   =     UHF
    Brueckner       =     No
    Memory (Mbytes) =     4000.0
    Maxiter         =     50
    R_Convergence   =     1.0e-10
    E_Convergence   =     1.0e-10
    Restart         =     Yes
    DIIS            =     Yes
    AO Basis        =     NONE
    ABCD            =     NEW
    Cache Level     =     2
    Cache Type      =     LRU
    Print Level     =     1
    Num. of threads =     12
    # Amps to Print =     10
    Print MP2 Amps? =     No
    Analyze T2 Amps =     No
    Print Pair Ener =     No
    Local CC        =     No
    SCS-MP2         =     False
    SCSN-MP2        =     False
    SCS-CCSD        =     False

MP2 correlation energy -0.2685694449161103
                Solving CC Amplitude Equations
                ------------------------------
  Iter             Energy              RMS        T1Diag      D1Diag    New D1Diag    D2Diag
  ----     ---------------------    ---------   ----------  ----------  ----------   --------
     0        -0.268569444916110    0.000e+00    0.000000    0.000000    0.000000    0.000000
     1        -0.267099773291753    4.756e-02    0.012073    0.000000    0.000000    0.000000
     2        -0.272157380368141    1.309e-02    0.011850    0.000000    0.000000    0.000000
     3        -0.273371004980973    6.149e-03    0.013696    0.000000    0.000000    0.000000
     4        -0.273266684883210    1.236e-03    0.014018    0.000000    0.000000    0.000000
     5        -0.273250360912558    4.554e-04    0.014149    0.000000    0.000000    0.000000
     6        -0.273251234921522    1.134e-04    0.014179    0.000000    0.000000    0.000000
     7        -0.273250025334176    3.830e-05    0.014185    0.000000    0.000000    0.000000
     8        -0.273250064564845    1.046e-05    0.014187    0.000000    0.000000    0.000000
     9        -0.273250111157328    3.207e-06    0.014187    0.000000    0.000000    0.000000
    10        -0.273249992248187    1.293e-06    0.014187    0.000000    0.000000    0.000000
    11        -0.273250009385360    4.447e-07    0.014187    0.000000    0.000000    0.000000
    12        -0.273250004484159    1.667e-07    0.014187    0.000000    0.000000    0.000000
    13        -0.273250006215002    4.928e-08    0.014187    0.000000    0.000000    0.000000
    14        -0.273250007392260    1.311e-08    0.014187    0.000000    0.000000    0.000000
    15        -0.273250007440728    4.000e-09    0.014187    0.000000    0.000000    0.000000
    16        -0.273250007441509    1.224e-09    0.014187    0.000000    0.000000    0.000000
    17        -0.273250007449805    4.204e-10    0.014187    0.000000    0.000000    0.000000
    18        -0.273250007446728    1.089e-10    0.014187    0.000000    0.000000    0.000000
    19        -0.273250007446336    3.273e-11    0.014187    0.000000    0.000000    0.000000

    Iterations converged.


    Largest TIA Amplitudes:
              2  44        -0.0150611268
              2  45        -0.0130068454
              1   1         0.0085030552
              1   4        -0.0077968476
              3  73         0.0054191287
              2  54         0.0042737475
              3  69         0.0037785048
              2  47        -0.0036747277
              3  80         0.0035978598
              1  23         0.0033884232

    Largest Tia Amplitudes:
              2  44        -0.0150611268
              2  45        -0.0130068454
              1   1         0.0085030552
              1   4        -0.0077968476
              3  73         0.0054191287
              2  54         0.0042737475
              3  69         0.0037785048
              2  47        -0.0036747277
              3  80         0.0035978598
              1  23         0.0033884232

    Largest TIJAB Amplitudes:
      2   1  46   7        -0.0095712892
      3   1  66   6        -0.0093918743
      3   2  33   6        -0.0085619243
      3   1  65   9         0.0081110356
      2   1  49   9         0.0079254740
      3   2  65  49        -0.0076113044
      3   1  66  13         0.0074432555
      3   2  65  44        -0.0073978805
      2   1  48   9         0.0072375491
      3   2  65  45        -0.0071796846

    Largest Tijab Amplitudes:
      2   1  46   7        -0.0095712892
      3   1  66   6        -0.0093918743
      3   2  33   6        -0.0085619243
      3   1  65   9         0.0081110356
      2   1  49   9         0.0079254740
      3   2  65  49        -0.0076113044
      3   1  66  13         0.0074432555
      3   2  65  44        -0.0073978805
      2   1  48   9         0.0072375491
      3   2  65  45        -0.0071796846

    Largest TIjAb Amplitudes:
      3   3  65  65        -0.0214686378
      1   1   9   9        -0.0199196240
      2   2  49  49        -0.0155960453
      3   3  65  69        -0.0155376786
      3   3  69  65        -0.0155376786
      3   3  66  66        -0.0148893838
      1   1  66  66        -0.0138055690
      2   2  48  48        -0.0134269481
      3   3  69  69        -0.0132582719
      1   3   9  65         0.0128265382

    SCF energy       (wfn)                    =  -76.060417511694311
    Reference energy (file100)                =  -76.060417511694666

    Opposite-spin MP2 correlation energy      =   -0.203381698681445
    Same-spin MP2 correlation energy          =   -0.065187746234666
    MP2 correlation energy                    =   -0.268569444916110
      * MP2 total energy                      =  -76.328986956610777

    Opposite-spin CCSD correlation energy     =   -0.215359058814425
    Same-spin CCSD correlation energy         =   -0.057890948631911
    CCSD correlation energy                   =   -0.273250007446336
      * CCSD total energy                     =  -76.333667519141002

            **************************
            *                        *
            *        CCTRIPLES       *
            *                        *
            **************************


    Wave function   =    CCSD_T
    Reference wfn   =      UHF

    Nuclear Rep. energy (wfn)                =    9.172199372440410
    SCF energy          (wfn)                =  -76.060417511694311
    Reference energy    (file100)            =  -76.060417511694666
    CCSD energy         (file100)            =   -0.273250007446336
    Total CCSD energy   (file100)            =  -76.333667519141002

    Number of ijk index combinations:
    Spin Case AAA:                                   4
    Spin Case BBB:                                   4
    Spin Case AAB:                                  24
    Spin Case ABB:                                  24
    AAA (T) energy                             =   -0.000193264070750
    BBB (T) energy                             =   -0.000193264070750
    AAB (T) energy                             =   -0.004132362743249
    ABB (T) energy                             =   -0.004132362743249
    (T) energy                                   =   -0.008651253627999
      * CCSD(T) total energy                     =  -76.342318772769005

Stephenergy -76.342318772769
    Psi4 stopped on: Monday, 08 March 2021 09:43AM
    Psi4 wall time for execution: 0:00:24.54

*** Psi4 exiting successfully. Buy a developer a beer!
