
    -----------------------------------------------------------------------
          Psi4: An Open-Source Ab Initio Electronic Structure Package
                               Psi4 1.3.2 release

                         Git: Rev {HEAD} ecbda83 


    R. M. Parrish, L. A. Burns, D. G. A. Smith, A. C. Simmonett,
    A. E. DePrince III, E. G. Hohenstein, U. Bozkaya, A. Yu. Sokolov,
    R. Di Remigio, R. M. Richard, J. F. Gonthier, A. M. James,
    H. R. McAlexander, A. Kumar, M. Saitow, X. Wang, B. P. Pritchard,
    P. Verma, H. F. Schaefer III, K. Patkowski, R. A. King, E. F. Valeev,
    F. A. Evangelista, J. M. Turney, T. D. Crawford, and C. D. Sherrill,
    J. Chem. Theory Comput. 13(7) pp 3185--3197 (2017).
    (doi: 10.1021/acs.jctc.7b00174)


                         Additional Contributions by
    P. Kraus, H. Kruse, M. H. Lechner, M. C. Schieber, R. A. Shaw,
    A. Alenaizan, R. Galvelis, Z. L. Glick, S. Lehtola, and J. P. Misiewicz

    -----------------------------------------------------------------------


    Psi4 started on: Wednesday, 10 March 2021 09:32AM

    Process ID: 45750
    Host:       c4-16.compute.lan
    PSIDATADIR: /apps/gb/PSI4/1.3.2/share/psi4
    Memory:     500.0 MiB
    Threads:    12
    
  ==> Input File <==

--------------------------------------------------------------------------
memory 4 GB

molecule  {
0 3
O    0.000000000000    0.000000000000   -1.503956028999
H    0.000000000000   -0.746742837368   -0.893322048099
H   -0.000000000000    0.746742837368   -0.893322048099
O    0.000000000000    0.000000000000    1.616530849601
}
set {
basis aug-cc-pvtz
reference uhf
e_convergence 10
scf_type pk
freeze_core true
}

set ccenergy {
e_convergence 10
r_convergence 10
}

e = energy('ccsd(t)')

print_out('Stephenergy {}'.format(e))

--------------------------------------------------------------------------

  Memory set to   3.725 GiB by Python driver.

*** tstart() called on c4-16.compute.lan
*** at Wed Mar 10 09:32:05 2021

   => Loading Basis Set <=

    Name: AUG-CC-PVTZ
    Role: ORBITAL
    Keyword: BASIS
    atoms 1, 4 entry O          line   327 file /apps/gb/PSI4/1.3.2/share/psi4/basis/aug-cc-pvtz.gbs 
    atoms 2-3  entry H          line    36 file /apps/gb/PSI4/1.3.2/share/psi4/basis/aug-cc-pvtz.gbs 


         ---------------------------------------------------------
                                   SCF
               by Justin Turney, Rob Parrish, Andy Simmonett
                          and Daniel G. A. Smith
                              UHF Reference
                       12 Threads,   3814 MiB Core
         ---------------------------------------------------------

  ==> Geometry <==

    Molecular point group: c2v
    Full point group: C2v

    Geometry (in Angstrom), charge = 0, multiplicity = 3:

       Center              X                  Y                   Z               Mass       
    ------------   -----------------  -----------------  -----------------  -----------------
         O           -0.000000000000     0.000000000000    -1.503956028999    15.994914619570
         H            0.000000000000    -0.746742837368    -0.893322048099     1.007825032230
         H           -0.000000000000     0.746742837368    -0.893322048099     1.007825032230
         O           -0.000000000000     0.000000000000     1.616530849601    15.994914619570

  Running in c2v symmetry.

  Rotational constants: A =     14.99820  B =      0.21182  C =      0.20887 [cm^-1]
  Rotational constants: A = 449634.81527  B =   6350.20807  C =   6261.77283 [MHz]
  Nuclear repulsion =   23.218256248390382

  Charge       = 0
  Multiplicity = 3
  Electrons    = 18
  Nalpha       = 10
  Nbeta        = 8

  ==> Algorithm <==

  SCF Algorithm Type is PK.
  DIIS enabled.
  MOM disabled.
  Fractional occupation disabled.
  Guess Type is SAD.
  Energy threshold   = 1.00e-10
  Density threshold  = 1.00e-08
  Integral threshold = 0.00e+00

  ==> Primary Basis <==

  Basis Set: AUG-CC-PVTZ
    Blend: AUG-CC-PVTZ
    Number of shells: 46
    Number of basis function: 138
    Number of Cartesian functions: 160
    Spherical Harmonics?: true
    Max angular momentum: 3

  ==> Pre-Iterations <==

   -------------------------------------------------------
    Irrep   Nso     Nmo     Nalpha   Nbeta   Ndocc  Nsocc
   -------------------------------------------------------
     A1        54      54       0       0       0       0
     A2        17      17       0       0       0       0
     B1        29      29       0       0       0       0
     B2        38      38       0       0       0       0
   -------------------------------------------------------
    Total     138     138      10       8       8       2
   -------------------------------------------------------

  ==> Integral Setup <==

  Using in-core PK algorithm.
   Calculation information:
      Number of atoms:                   4
      Number of AO shells:              46
      Number of primitives:             82
      Number of atomic orbitals:       160
      Number of basis functions:       138

      Integral cutoff                 1.00e-12
      Number of threads:                12

  Performing in-core PK
  Using 91996872 doubles for integral storage.
  We computed 926563 shell quartets total.
  Whereas there are 584821 unique shell quartets.
    58.44 percent of shell quartets recomputed by reordering.

  ==> DiskJK: Disk-Based J/K Matrices <==

    J tasked:                  Yes
    K tasked:                  Yes
    wK tasked:                  No
    Memory [MiB]:             2861
    Schwarz Cutoff:          1E-12

    OpenMP threads:             12

  Minimum eigenvalue in the overlap matrix is 3.6824468068E-04.
  Using Symmetric Orthogonalization.

  SCF Guess: Superposition of Atomic Densities via on-the-fly atomic UHF.

  ==> Iterations <==

                        Total Energy        Delta E     RMS |[F,P]|

   @UHF iter SAD:  -149.39398528353675   -1.49394e+02   0.00000e+00 
   @UHF iter   1:  -150.76323097775656   -1.36925e+00   6.94773e-03 DIIS
   @UHF iter   2:  -150.83603196401393   -7.28010e-02   4.52331e-03 DIIS
   @UHF iter   3:  -150.87080783120604   -3.47759e-02   5.40930e-04 DIIS
   @UHF iter   4:  -150.87193625769825   -1.12843e-03   1.78720e-04 DIIS
   @UHF iter   5:  -150.87206277797870   -1.26520e-04   7.00626e-05 DIIS
   @UHF iter   6:  -150.87209551515497   -3.27372e-05   1.99125e-05 DIIS
   @UHF iter   7:  -150.87209833825281   -2.82310e-06   4.71108e-06 DIIS
   @UHF iter   8:  -150.87209851070099   -1.72448e-07   1.23034e-06 DIIS
   @UHF iter   9:  -150.87209852234514   -1.16441e-08   3.03816e-07 DIIS
   @UHF iter  10:  -150.87209852306279   -7.17648e-10   1.34156e-07 DIIS
   @UHF iter  11:  -150.87209852325086   -1.88066e-10   5.86075e-08 DIIS
   @UHF iter  12:  -150.87209852329190   -4.10409e-11   1.02505e-08 DIIS
   @UHF iter  13:  -150.87209852329255   -6.53699e-13   3.92850e-09 DIIS
  Energy and wave function converged.


  ==> Post-Iterations <==

   @Spin Contamination Metric:   9.093525356E-03
   @S^2 Expected:                2.000000000E+00
   @S^2 Observed:                2.009093525E+00
   @S   Expected:                1.000000000E+00
   @S   Observed:                1.000000000E+00

    Orbital Energies [Eh]
    ---------------------

    Alpha Occupied:                                                       

       1A1   -20.732388     2A1   -20.561907     3A1    -1.442084  
       4A1    -1.344798     1B2    -0.733552     1B1    -0.732755  
       2B2    -0.700653     5A1    -0.639241     6A1    -0.579040  
       2B1    -0.503646  

    Alpha Virtual:                                                        

       7A1     0.035947     3B2     0.048683     3B1     0.131123  
       8A1     0.131796     9A1     0.151689     4B2     0.159048  
       4B1     0.184914     5B2     0.186024    10A1     0.191067  
      11A1     0.261384     6B2     0.262586     1A2     0.266098  
      12A1     0.275353     5B1     0.324630    13A1     0.381005  
       7B2     0.385753    14A1     0.454692     8B2     0.474103  
       2A2     0.611573    15A1     0.626932     9B2     0.627367  
      16A1     0.639577     6B1     0.649900    17A1     0.716970  
       3A2     0.732480    10B2     0.747837     7B1     0.758878  
      18A1     0.786034     8B1     0.829269    11B2     0.849926  
      19A1     0.857941     9B1     0.919766    12B2     0.943475  
       4A2     0.945756    20A1     0.960570    21A1     0.981742  
      10B1     0.991589    13B2     1.003421    22A1     1.058363  
      14B2     1.061077    11B1     1.156992     5A2     1.194200  
      23A1     1.201671    24A1     1.239583    15B2     1.270945  
      16B2     1.324912    25A1     1.419980     6A2     1.509413  
      12B1     1.584680    26A1     1.729286    27A1     1.838295  
      17B2     1.851971    18B2     1.962266    13B1     1.976188  
      28A1     2.006989    19B2     2.007928     7A2     2.017583  
      14B1     2.037250    29A1     2.043530     8A2     2.068723  
      30A1     2.095807    20B2     2.109907    15B1     2.149516  
      31A1     2.201027    16B1     2.306015    21B2     2.322579  
       9A2     2.341609    32A1     2.379198    33A1     2.413255  
      34A1     2.487155    22B2     2.523957    17B1     2.551580  
      35A1     2.604255    23B2     2.697312    18B1     2.726424  
      36A1     2.847126    10A2     2.890726    24B2     2.900815  
      25B2     3.673967    37A1     3.735286    11A2     4.047314  
      19B1     4.053698    20B1     4.111015    26B2     4.115959  
      38A1     4.213949    21B1     4.259225    27B2     4.281284  
      39A1     4.302590    12A2     4.385931    22B1     4.421163  
      40A1     4.500365    28B2     4.545917    41A1     4.767524  
      29B2     4.862462    13A2     5.139176    30B2     5.190700  
      31B2     5.230233    42A1     5.365889    23B1     5.528431  
      43A1     5.653755    44A1     6.215826    24B1     6.312482  
      32B2     6.314923    14A2     6.384693    45A1     6.396684  
      25B1     6.419055    33B2     6.490857    46A1     6.509995  
      34B2     6.545586    26B1     6.767987    15A2     6.821122  
      47A1     6.823401    27B1     6.940198    48A1     6.949506  
      35B2     6.978474    49A1     7.040398    28B1     7.136618  
      29B1     7.265014    16A2     7.317729    36B2     7.330929  
      17A2     7.356856    50A1     7.390161    51A1     7.552737  
      52A1     7.879565    37B2     7.947496    53A1     8.779434  
      38B2     8.814528    54A1    15.675203  

    Beta Occupied:                                                        

       1A1   -20.653892     2A1   -20.561978     3A1    -1.345211  
       4A1    -1.099994     1B2    -0.701002     5A1    -0.590089  
       6A1    -0.539179     1B1    -0.503581  

    Beta Virtual:                                                         

       2B2     0.033114     7A1     0.037206     2B1     0.047408  
       3B2     0.069378     8A1     0.137379     9A1     0.154244  
       3B1     0.161242     4B2     0.179716    10A1     0.191509  
       4B1     0.225742     5B2     0.226106     6B2     0.265066  
       1A2     0.266669    11A1     0.269426    12A1     0.278934  
       5B1     0.326374    13A1     0.384651     7B2     0.393816  
      14A1     0.456370     8B2     0.474565     9B2     0.628845  
      15A1     0.641531     2A2     0.643536    16A1     0.659949  
       6B1     0.660446    17A1     0.717959     3A2     0.733666  
      10B2     0.761258     7B1     0.762980    18A1     0.800713  
      19A1     0.862399     8B1     0.909908     9B1     0.938141  
      11B2     0.939928     4A2     0.948247    12B2     0.952971  
      20A1     0.962369    21A1     0.987425    13B2     1.031597  
      10B1     1.036945    22A1     1.060236    14B2     1.070274  
      11B1     1.168983     5A2     1.195237    23A1     1.206201  
      15B2     1.271074    24A1     1.282160    16B2     1.343143  
      25A1     1.443469     6A2     1.509721    12B1     1.585043  
      26A1     1.749370    27A1     1.841874    17B2     1.853192  
      18B2     1.974617    13B1     2.013585    28A1     2.032614  
      19B2     2.033306    14B1     2.064089     7A2     2.070301  
      29A1     2.103011    20B2     2.166164     8A2     2.186301  
      30A1     2.187520    15B1     2.207005    31A1     2.243131  
      16B1     2.315448     9A2     2.346740    21B2     2.354995  
      32A1     2.383245    33A1     2.432899    34A1     2.488159  
      22B2     2.531867    17B1     2.556467    35A1     2.608249  
      23B2     2.697927    18B1     2.726604    36A1     2.847962  
      10A2     2.890795    24B2     2.902354    25B2     3.674460  
      37A1     3.735713    11A2     4.047460    19B1     4.105961  
      38A1     4.218816    20B1     4.227894    21B1     4.261345  
      26B2     4.270069    27B2     4.293908    39A1     4.319837  
      12A2     4.386004    22B1     4.421975    40A1     4.525507  
      28B2     4.547479    41A1     4.768449    29B2     4.863067  
      13A2     5.139228    30B2     5.190761    31B2     5.230375  
      42A1     5.366342    23B1     5.528438    43A1     5.654044  
      44A1     6.221185    24B1     6.421129    32B2     6.423235  
      14A2     6.461163    45A1     6.469473    25B1     6.473152  
      33B2     6.507110    46A1     6.555889    34B2     6.586150  
      26B1     6.775566    47A1     6.952337    15A2     7.009653  
      48A1     7.014069    27B1     7.045503    35B2     7.087158  
      49A1     7.117111    28B1     7.138040    29B1     7.265084  
      16A2     7.317780    36B2     7.331787    17A2     7.357021  
      50A1     7.391442    51A1     7.554359    52A1     7.879745  
      37B2     7.947502    38B2     8.814398    53A1     8.860734  
      54A1    15.675210  

    Final Occupation by Irrep:
             A1    A2    B1    B2 
    DOCC [     6,    0,    1,    1 ]
    SOCC [     0,    0,    1,    1 ]

  @UHF Final Energy:  -150.87209852329255

   => Energetics <=

    Nuclear Repulsion Energy =             23.2182562483903823
    One-Electron Energy =                -254.2157198202000927
    Two-Electron Energy =                  80.1253650485171534
    Total Energy =                       -150.8720985232925500

  UHF NO Occupations:
  HONO-2 :    6 A1 1.9970818
  HONO-1 :    2 B2 1.0000000
  HONO-0 :    2 B1 1.0000000
  LUNO+0 :    7 A1 0.0029182
  LUNO+1 :    8 A1 0.0016291
  LUNO+2 :    9 A1 0.0000024
  LUNO+3 :   10 A1 0.0000015


Computation Completed


Properties will be evaluated at   0.000000,   0.000000,   0.000000 [a0]

Properties computed using the SCF density matrix

  Nuclear Dipole Moment: [e a0]
     X:    -0.0000      Y:     0.0000      Z:    -1.6744

  Electronic Dipole Moment: [e a0]
     X:     0.0000      Y:     0.0000      Z:     2.5363

  Dipole Moment: [e a0]
     X:    -0.0000      Y:     0.0000      Z:     0.8619     Total:     0.8619

  Dipole Moment: [D]
     X:    -0.0000      Y:     0.0000      Z:     2.1908     Total:     2.1908


*** tstop() called on c4-16.compute.lan at Wed Mar 10 09:32:10 2021
Module time:
	user time   =      50.48 seconds =       0.84 minutes
	system time =       0.79 seconds =       0.01 minutes
	total time  =          5 seconds =       0.08 minutes
Total time:
	user time   =      50.48 seconds =       0.84 minutes
	system time =       0.79 seconds =       0.01 minutes
	total time  =          5 seconds =       0.08 minutes
 MINTS: Wrapper to libmints.
   by Justin Turney

   Calculation information:
      Number of threads:                12
      Number of atoms:                   4
      Number of AO shells:              46
      Number of SO shells:              37
      Number of primitives:             82
      Number of atomic orbitals:       160
      Number of basis functions:       138

      Number of irreps:                  4
      Integral cutoff                 0.00e+00
      Number of functions per irrep: [  54   17   29   38 ]

 OEINTS: Overlap, kinetic, potential, dipole, and quadrupole integrals
         stored in file 35.

      Computing two-electron integrals...done
      Computed 11518014 non-zero two-electron integrals.
        Stored in file 33.


*** tstart() called on c4-16.compute.lan
*** at Wed Mar 10 09:32:13 2021


	Wfn Parameters:
	--------------------
	Wavefunction         = CCSD_T
	Number of irreps     = 4
	Number of MOs        = 138
	Number of active MOs = 136
	AO-Basis             = NONE
	Semicanonical        = false
	Reference            = UHF
	Print Level          = 1

	IRREP	# MOs	# FZDC	# DOCC	# SOCC	# VIRT	# FZVR
	-----	-----	------	------	------	------	------
	 A1	   54	    2	    4	    0	    48	    0
	 A2	   17	    0	    0	    0	    17	    0
	 B1	   29	    0	    1	    1	    27	    0
	 B2	   38	    0	    1	    1	    36	    0
	Transforming integrals...
	IWL integrals will be deleted.
	(OO|OO)...
	Presorting SO-basis two-electron integrals.
	Sorting File: SO Ints (nn|nn) nbuckets = 1
	Transforming the one-electron integrals and constructing Fock matrices
	Starting AA/AB first half-transformation.
	Sorting AA/AB half-transformed integrals.
	Starting BB first half-transformation.
	Sorting BB half-transformed integrals.
	First half integral transformation complete.
	Starting AA second half-transformation.
	Starting AB second half-transformation.
	Starting BB second half-transformation.
	Two-electron integral transformation complete.
	(OO|OV)...
	Starting AA second half-transformation.
	Starting AB second half-transformation.
	Starting BB second half-transformation.
	Two-electron integral transformation complete.
	(OO|VV)...
	Starting AA second half-transformation.
	Starting AB second half-transformation.
	Starting BB second half-transformation.
	Two-electron integral transformation complete.
	(OV|OO)...
	Starting AA/AB first half-transformation.
	Sorting AA/AB half-transformed integrals.
	Starting BB first half-transformation.
	Sorting BB half-transformed integrals.
	First half integral transformation complete.
	Starting AA second half-transformation.
	Starting AB second half-transformation.
	Starting BB second half-transformation.
	Two-electron integral transformation complete.
	(OV|OV)...
	Starting AA second half-transformation.
	Starting AB second half-transformation.
	Starting BB second half-transformation.
	Two-electron integral transformation complete.
	(OV|VV)...
	Starting AA second half-transformation.
	Starting AB second half-transformation.
	Starting BB second half-transformation.
	Two-electron integral transformation complete.
	(VV|OO)...
	Starting AA/AB first half-transformation.
	Sorting AA/AB half-transformed integrals.
	Starting BB first half-transformation.
	Sorting BB half-transformed integrals.
	First half integral transformation complete.
	Starting AA second half-transformation.
	Starting AB second half-transformation.
	Starting BB second half-transformation.
	Two-electron integral transformation complete.
	(VV|OV)...
	Starting AA second half-transformation.
	Starting AB second half-transformation.
	Starting BB second half-transformation.
	Two-electron integral transformation complete.
	(VV|VV)...
	Starting AA second half-transformation.
	Starting AB second half-transformation.
	Starting BB second half-transformation.
	Two-electron integral transformation complete.
	Frozen core energy     =   -125.96200244130071

	Size of irrep 0 of <AB|CD> integrals:      5.040 (MW) /     40.320 (MB)
	Size of irrep 1 of <AB|CD> integrals:      3.197 (MW) /     25.576 (MB)
	Size of irrep 2 of <AB|CD> integrals:      3.640 (MW) /     29.124 (MB)
	Size of irrep 3 of <AB|CD> integrals:      4.783 (MW) /     38.264 (MB)
	Total:                                    16.660 (MW) /    133.283 (MB)

	Size of irrep 0 of <ab|cd> integrals:      5.327 (MW) /     42.615 (MB)
	Size of irrep 1 of <ab|cd> integrals:      3.430 (MW) /     27.439 (MB)
	Size of irrep 2 of <ab|cd> integrals:      3.893 (MW) /     31.142 (MB)
	Size of irrep 3 of <ab|cd> integrals:      5.072 (MW) /     40.572 (MB)
	Total:                                    17.721 (MW) /    141.768 (MB)

	Size of irrep 0 of <Ab|Cd> integrals:     21.912 (MW) /    175.294 (MB)
	Size of irrep 1 of <Ab|Cd> integrals:     13.242 (MW) /    105.939 (MB)
	Size of irrep 2 of <Ab|Cd> integrals:     15.062 (MW) /    120.497 (MB)
	Size of irrep 3 of <Ab|Cd> integrals:     19.705 (MW) /    157.638 (MB)
	Total:                                    69.921 (MW) /    559.368 (MB)

	Size of irrep 0 of <IA|BC> integrals:      1.469 (MW) /     11.748 (MB)
	Size of irrep 1 of <IA|BC> integrals:      0.694 (MW) /      5.550 (MB)
	Size of irrep 2 of <IA|BC> integrals:      0.908 (MW) /      7.266 (MB)
	Size of irrep 3 of <IA|BC> integrals:      1.198 (MW) /      9.588 (MB)
	Total:                                     4.269 (MW) /     34.152 (MB)

	Size of irrep 0 of <ia|bc> integrals:      1.220 (MW) /      9.758 (MB)
	Size of irrep 1 of <ia|bc> integrals:      0.493 (MW) /      3.941 (MB)
	Size of irrep 2 of <ia|bc> integrals:      0.698 (MW) /      5.588 (MB)
	Size of irrep 3 of <ia|bc> integrals:      0.959 (MW) /      7.675 (MB)
	Total:                                     3.370 (MW) /     26.961 (MB)

	Size of irrep 0 of <Ia|Bc> integrals:      1.507 (MW) /     12.058 (MB)
	Size of irrep 1 of <Ia|Bc> integrals:      0.721 (MW) /      5.764 (MB)
	Size of irrep 2 of <Ia|Bc> integrals:      0.939 (MW) /      7.514 (MB)
	Size of irrep 3 of <Ia|Bc> integrals:      1.234 (MW) /      9.872 (MB)
	Total:                                     4.401 (MW) /     35.208 (MB)

	Size of irrep 0 of <iA|bC> integrals:      1.194 (MW) /      9.549 (MB)
	Size of irrep 1 of <iA|bC> integrals:      0.477 (MW) /      3.814 (MB)
	Size of irrep 2 of <iA|bC> integrals:      0.671 (MW) /      5.371 (MB)
	Size of irrep 3 of <iA|bC> integrals:      0.928 (MW) /      7.422 (MB)
	Total:                                     3.270 (MW) /     26.156 (MB)

	Size of irrep 0 of tIjAb amplitudes:       0.094 (MW) /      0.749 (MB)
	Size of irrep 1 of tIjAb amplitudes:       0.015 (MW) /      0.116 (MB)
	Size of irrep 2 of tIjAb amplitudes:       0.047 (MW) /      0.373 (MB)
	Size of irrep 3 of tIjAb amplitudes:       0.053 (MW) /      0.426 (MB)
	Total:                                     0.208 (MW) /      1.664 (MB)

	Nuclear Rep. energy          =     23.21825624839038
	SCF energy                   =   -150.87209852329255
	One-electron energy          =    -84.80187894436662
	Two-electron (AA) energy     =     10.20167215943260
	Two-electron (BB) energy     =      5.42493943752629
	Two-electron (AB) energy     =     21.04691501702430
	Two-electron energy          =     36.67352661398319
	Reference energy             =   -150.87209852329374

*** tstop() called on c4-16.compute.lan at Wed Mar 10 09:32:34 2021
Module time:
	user time   =      56.11 seconds =       0.94 minutes
	system time =      10.41 seconds =       0.17 minutes
	total time  =         21 seconds =       0.35 minutes
Total time:
	user time   =     112.69 seconds =       1.88 minutes
	system time =      11.61 seconds =       0.19 minutes
	total time  =         29 seconds =       0.48 minutes
            **************************
            *                        *
            *        CCENERGY        *
            *                        *
            **************************

    Nuclear Rep. energy (wfn)     =   23.218256248390382
    SCF energy          (wfn)     = -150.872098523292550
    Reference energy    (file100) = -150.872098523293744

    Input parameters:
    -----------------
    Wave function   =     CCSD_T
    Reference wfn   =     UHF
    Brueckner       =     No
    Memory (Mbytes) =     4000.0
    Maxiter         =     50
    R_Convergence   =     1.0e-10
    E_Convergence   =     1.0e-10
    Restart         =     Yes
    DIIS            =     Yes
    AO Basis        =     NONE
    ABCD            =     NEW
    Cache Level     =     2
    Cache Type      =     LRU
    Print Level     =     1
    Num. of threads =     12
    # Amps to Print =     10
    Print MP2 Amps? =     No
    Analyze T2 Amps =     No
    Print Pair Ener =     No
    Local CC        =     No
    SCS-MP2         =     False
    SCSN-MP2        =     False
    SCS-CCSD        =     False

MP2 correlation energy -0.4166137554500352
                Solving CC Amplitude Equations
                ------------------------------
  Iter             Energy              RMS        T1Diag      D1Diag    New D1Diag    D2Diag
  ----     ---------------------    ---------   ----------  ----------  ----------   --------
     0        -0.416613755450035    0.000e+00    0.000000    0.000000    0.000000    0.000000
     1        -0.427377305088984    5.678e-02    0.010481    0.000000    0.000000    0.000000
     2        -0.435536655609490    1.688e-02    0.011012    0.000000    0.000000    0.000000
     3        -0.437640517349937    8.562e-03    0.012881    0.000000    0.000000    0.000000
     4        -0.437516399426441    2.516e-03    0.013250    0.000000    0.000000    0.000000
     5        -0.437499777396736    1.342e-03    0.013412    0.000000    0.000000    0.000000
     6        -0.437526896490392    5.203e-04    0.013440    0.000000    0.000000    0.000000
     7        -0.437531789630908    2.764e-04    0.013438    0.000000    0.000000    0.000000
     8        -0.437532325325500    8.629e-05    0.013434    0.000000    0.000000    0.000000
     9        -0.437533693396805    4.597e-05    0.013435    0.000000    0.000000    0.000000
    10        -0.437532088762526    2.254e-05    0.013436    0.000000    0.000000    0.000000
    11        -0.437532237760432    1.249e-05    0.013437    0.000000    0.000000    0.000000
    12        -0.437532187276564    5.426e-06    0.013438    0.000000    0.000000    0.000000
    13        -0.437532229112709    2.037e-06    0.013438    0.000000    0.000000    0.000000
    14        -0.437532295116812    8.133e-07    0.013438    0.000000    0.000000    0.000000
    15        -0.437532299887231    2.210e-07    0.013438    0.000000    0.000000    0.000000
    16        -0.437532300682033    1.199e-07    0.013438    0.000000    0.000000    0.000000
    17        -0.437532301880645    3.798e-08    0.013438    0.000000    0.000000    0.000000
    18        -0.437532301261290    1.775e-08    0.013438    0.000000    0.000000    0.000000
    19        -0.437532301049596    5.681e-09    0.013438    0.000000    0.000000    0.000000
    20        -0.437532301102652    2.697e-09    0.013438    0.000000    0.000000    0.000000
    21        -0.437532301116232    1.254e-09    0.013438    0.000000    0.000000    0.000000
    22        -0.437532301123728    5.387e-10    0.013438    0.000000    0.000000    0.000000
    23        -0.437532301130695    2.554e-10    0.013438    0.000000    0.000000    0.000000
    24        -0.437532301128924    1.117e-10    0.013438    0.000000    0.000000    0.000000
    25        -0.437532301127109    4.429e-11    0.013438    0.000000    0.000000    0.000000

    Iterations converged.


    Largest TIA Amplitudes:
              5  67        -0.0142004096
              5  65        -0.0125876708
              2   2         0.0093962466
              6  93        -0.0084589699
              4  65        -0.0083841768
              5  66        -0.0082718992
              2   6        -0.0079357218
              3   6        -0.0065160567
              3   1         0.0059218320
              4  70        -0.0053519309

    Largest Tia Amplitudes:
              4  68        -0.0141362800
              4  66        -0.0120661793
              4  65        -0.0116419126
              2   6        -0.0093583136
              2   2         0.0075472268
              3   1         0.0051788566
              1  24        -0.0049724991
              1  11        -0.0049425595
              5 109         0.0048521596
              2   5        -0.0045423903

    Largest TIJAB Amplitudes:
      6   4 100  70         0.0161700597
      4   2  70  11        -0.0116473260
      6   2 100  11         0.0109245521
      7   5  50  10        -0.0089268071
      6   4  54  22         0.0087534599
      7   3  97   6        -0.0083444218
      6   4 115  81         0.0082593588
      6   4  93  70        -0.0080850560
      6   4 115  70        -0.0080700014
      4   2  77  24        -0.0080666749

    Largest Tijab Amplitudes:
      5   4  50  10        -0.0088415126
      5   2 100   8         0.0086275785
      5   2  99   6        -0.0076448161
      5   4  53  10        -0.0075548204
      5   4  99  68        -0.0075036315
      5   4  99  71        -0.0070855435
      3   1  78  65        -0.0069203031
      4   2  68   6        -0.0068609054
      4   2  70  10         0.0065842605
      3   1  69  65        -0.0064481689

    Largest TIjAb Amplitudes:
      7   5  97  99        -0.0186730936
      2   3  11  11         0.0173644778
      7   5  98 100        -0.0163428981
      6   1  54  65        -0.0159221738
      4   1  22  65         0.0151874190
      2   1  77  65         0.0142857087
      6   1  49  65         0.0142625314
      7   5 103  99        -0.0141428467
      4   3  70  11         0.0139495588
      3   2   6   6        -0.0138957832

    SCF energy       (wfn)                    = -150.872098523292550
    Reference energy (file100)                = -150.872098523293744

    Opposite-spin MP2 correlation energy      =   -0.314710398185965
    Same-spin MP2 correlation energy          =   -0.101903357264070
    MP2 correlation energy                    =   -0.416613755450035
      * MP2 total energy                      = -151.288712278743787

    Opposite-spin CCSD correlation energy     =   -0.342376462631641
    Same-spin CCSD correlation energy         =   -0.095155838495468
    CCSD correlation energy                   =   -0.437532301127109
      * CCSD total energy                     = -151.309630824420850

            **************************
            *                        *
            *        CCTRIPLES       *
            *                        *
            **************************


    Wave function   =    CCSD_T
    Reference wfn   =      UHF

    Nuclear Rep. energy (wfn)                =   23.218256248390382
    SCF energy          (wfn)                = -150.872098523292550
    Reference energy    (file100)            = -150.872098523293744
    CCSD energy         (file100)            =   -0.437532301127109
    Total CCSD energy   (file100)            = -151.309630824420850

    Number of ijk index combinations:
    Spin Case AAA:                                  56
    Spin Case BBB:                                  20
    Spin Case AAB:                                 168
    Spin Case ABB:                                 120
    AAA (T) energy                             =   -0.000399280666544
    BBB (T) energy                             =   -0.000202070722340
    AAB (T) energy                             =   -0.006735783105293
    ABB (T) energy                             =   -0.005005927026598
    (T) energy                                   =   -0.012343061520776
      * CCSD(T) total energy                     = -151.321973885941617

Stephenergy -151.32197388594162
    Psi4 stopped on: Wednesday, 10 March 2021 09:33AM
    Psi4 wall time for execution: 0:01:41.03

*** Psi4 exiting successfully. Buy a developer a beer!
