
    -----------------------------------------------------------------------
          Psi4: An Open-Source Ab Initio Electronic Structure Package
                               Psi4 1.4a2.dev191 

                         Git: Rev {master} 0ab5346 


    R. M. Parrish, L. A. Burns, D. G. A. Smith, A. C. Simmonett,
    A. E. DePrince III, E. G. Hohenstein, U. Bozkaya, A. Yu. Sokolov,
    R. Di Remigio, R. M. Richard, J. F. Gonthier, A. M. James,
    H. R. McAlexander, A. Kumar, M. Saitow, X. Wang, B. P. Pritchard,
    P. Verma, H. F. Schaefer III, K. Patkowski, R. A. King, E. F. Valeev,
    F. A. Evangelista, J. M. Turney, T. D. Crawford, and C. D. Sherrill,
    J. Chem. Theory Comput. 13(7) pp 3185--3197 (2017).
    (doi: 10.1021/acs.jctc.7b00174)


                         Additional Contributions by
    P. Kraus, H. Kruse, M. H. Lechner, M. C. Schieber, R. A. Shaw,
    A. Alenaizan, R. Galvelis, Z. L. Glick, S. Lehtola, and J. P. Misiewicz

    -----------------------------------------------------------------------


    Psi4 started on: Tuesday, 23 February 2021 01:21PM

    Process ID: 234454
    Host:       c4-20.compute.lan
    PSIDATADIR: /apps/gb/PSI4/1.4.0/share/psi4
    Memory:     500.0 MiB
    Threads:    1
    
  ==> Input File <==

--------------------------------------------------------------------------
memory 10 GB

molecule {
0 2
O 
H 1 R1
R1 = 0.96
}

set {
basis aug-cc-pvtz
e_convergence 10
reference uhf
scf_type pk
g_convergence gau_verytight
}

optimize("scf")

--------------------------------------------------------------------------

  Memory set to   9.313 GiB by Python driver.
gradient() will perform analytic gradient computation.

*** tstart() called on c4-20.compute.lan
*** at Tue Feb 23 13:21:03 2021

   => Loading Basis Set <=

    Name: AUG-CC-PVTZ
    Role: ORBITAL
    Keyword: BASIS
    atoms 1 entry O          line   331 file /apps/gb/PSI4/1.4.0/share/psi4/basis/aug-cc-pvtz.gbs 
    atoms 2 entry H          line    40 file /apps/gb/PSI4/1.4.0/share/psi4/basis/aug-cc-pvtz.gbs 


         ---------------------------------------------------------
                                   SCF
               by Justin Turney, Rob Parrish, Andy Simmonett
                          and Daniel G. A. Smith
                              UHF Reference
                        1 Threads,   9536 MiB Core
         ---------------------------------------------------------

  ==> Geometry <==

    Molecular point group: c2v
    Full point group: C_inf_v

    Geometry (in Angstrom), charge = 0, multiplicity = 2:

       Center              X                  Y                   Z               Mass       
    ------------   -----------------  -----------------  -----------------  -----------------
         O            0.000000000000     0.000000000000    -0.056903302100    15.994914619570
         H            0.000000000000     0.000000000000     0.903096697900     1.007825032230

  Running in c2v symmetry.

  Rotational constants: A = ************  B =     19.29327  C =     19.29327 [cm^-1]
  Rotational constants: A = ************  B = 578397.71805  C = 578397.71805 [MHz]
  Nuclear repulsion =    4.409810088916667

  Charge       = 0
  Multiplicity = 2
  Electrons    = 9
  Nalpha       = 5
  Nbeta        = 4

  ==> Algorithm <==

  SCF Algorithm Type is PK.
  DIIS enabled.
  MOM disabled.
  Fractional occupation disabled.
  Guess Type is SAD.
  Energy threshold   = 1.00e-10
  Density threshold  = 1.00e-08
  Integral threshold = 0.00e+00

  ==> Primary Basis <==

  Basis Set: AUG-CC-PVTZ
    Blend: AUG-CC-PVTZ
    Number of shells: 23
    Number of basis function: 69
    Number of Cartesian functions: 80
    Spherical Harmonics?: true
    Max angular momentum: 3

  ==> Pre-Iterations <==

   -------------------------------------------------------
    Irrep   Nso     Nmo     Nalpha   Nbeta   Ndocc  Nsocc
   -------------------------------------------------------
     A1        30      30       0       0       0       0
     A2         7       7       0       0       0       0
     B1        16      16       0       0       0       0
     B2        16      16       0       0       0       0
   -------------------------------------------------------
    Total      69      69       5       4       4       1
   -------------------------------------------------------

  ==> Integral Setup <==

  Using in-core PK algorithm.
   Calculation information:
      Number of atoms:                   2
      Number of AO shells:              23
      Number of primitives:             41
      Number of atomic orbitals:        80
      Number of basis functions:        69

      Integral cutoff                 1.00e-12
      Number of threads:                 1

  Performing in-core PK
  Using 5834640 doubles for integral storage.
  We computed 38226 shell quartets total.
  Whereas there are 38226 unique shell quartets.

  ==> DiskJK: Disk-Based J/K Matrices <==

    J tasked:                  Yes
    K tasked:                  Yes
    wK tasked:                  No
    Memory [MiB]:             7152
    Schwarz Cutoff:          1E-12

    OpenMP threads:              1

  Minimum eigenvalue in the overlap matrix is 4.9240322417E-04.
  Using Symmetric Orthogonalization.

  SCF Guess: Superposition of Atomic Densities via on-the-fly atomic UHF.

  ==> Iterations <==

                        Total Energy        Delta E     RMS |[F,P]|

   @UHF iter SAD:   -74.65547671740084   -7.46555e+01   0.00000e+00 
   @UHF iter   1:   -75.39808785721517   -7.42611e-01   6.03577e-03 DIIS
   @UHF iter   2:   -75.41856008616082   -2.04722e-02   2.36326e-03 DIIS
   @UHF iter   3:   -75.42134675712347   -2.78667e-03   6.84425e-04 DIIS
   @UHF iter   4:   -75.42179899895120   -4.52242e-04   2.10816e-04 DIIS
   @UHF iter   5:   -75.42187308451241   -7.40856e-05   9.33824e-05 DIIS
   @UHF iter   6:   -75.42189330569548   -2.02212e-05   3.32742e-05 DIIS
   @UHF iter   7:   -75.42189649241028   -3.18671e-06   1.10635e-05 DIIS
   @UHF iter   8:   -75.42189685333636   -3.60926e-07   2.36393e-06 DIIS
   @UHF iter   9:   -75.42189686532475   -1.19884e-08   7.62015e-07 DIIS
   @UHF iter  10:   -75.42189686668104   -1.35628e-09   1.04387e-07 DIIS
   @UHF iter  11:   -75.42189686670378   -2.27374e-11   1.46945e-08 DIIS
   @UHF iter  12:   -75.42189686670415   -3.69482e-13   3.29722e-09 DIIS
  Energy and wave function converged.


  ==> Post-Iterations <==

   @Spin Contamination Metric:   6.955427391E-03
   @S^2 Expected:                7.500000000E-01
   @S^2 Observed:                7.569554274E-01
   @S   Expected:                5.000000000E-01
   @S   Observed:                5.000000000E-01

    Orbital Energies [Eh]
    ---------------------

    Alpha Occupied:                                                       

       1A1   -20.640287     2A1    -1.393010     3A1    -0.685780  
       1B2    -0.659012     1B1    -0.562155  

    Alpha Virtual:                                                        

       4A1     0.029960     5A1     0.136461     2B2     0.152551  
       2B1     0.161840     6A1     0.184382     7A1     0.263001  
       3B2     0.268994     3B1     0.275557     8A1     0.428343  
       9A1     0.630492     1A2     0.638743    10A1     0.650637  
       4B2     0.714194     4B1     0.728914     5B2     0.852522  
      11A1     0.877445     5B1     0.879903    12A1     0.923994  
       2A2     0.938769    13A1     0.939806     6B2     0.982640  
      14A1     1.003254     6B1     1.009100     7B2     1.500901  
       7B1     1.520412    15A1     1.692608    16A1     2.040699  
       8B2     2.042840     8B1     2.042860     3A2     2.097508  
      17A1     2.098146     9B2     2.254434     9B1     2.291255  
      18A1     2.322984     4A2     2.324055    19A1     2.433924  
      20A1     2.494390    10B2     2.727429    10B1     2.766383  
      21A1     3.592824    11B2     4.027465     5A2     4.038274  
      22A1     4.038530    11B1     4.084165    12B2     4.301071  
      12B1     4.314343    23A1     4.649873    24A1     5.139551  
      13B2     5.282475    13B1     5.321522    25A1     6.128199  
      14B2     6.431221    14B1     6.431245     6A2     6.597006  
      26A1     6.598692     7A2     6.965547    27A1     6.965556  
      15B2     7.136662    16B2     7.180992    15B1     7.191270  
      16B1     7.240289    28A1     7.394930    29A1     7.710414  
      30A1    13.083462  

    Beta Occupied:                                                        

       1A1   -20.600698     2A1    -1.235353     3A1    -0.641706  
       1B1    -0.514190  

    Beta Virtual:                                                         

       4A1     0.031084     1B2     0.063069     5A1     0.138916  
       2B1     0.164024     6A1     0.188610     2B2     0.209626  
       7A1     0.266196     3B1     0.275519     3B2     0.290113  
       8A1     0.438507     9A1     0.646990     1A2     0.655450  
      10A1     0.656849     4B1     0.727150     4B2     0.730868  
      11A1     0.882127     5B1     0.886722     5B2     0.912557  
      12A1     0.934962     2A2     0.940818    13A1     0.941500  
      14A1     1.014227     6B1     1.016853     6B2     1.059635  
       7B1     1.520228     7B2     1.526160    15A1     1.711400  
       8B1     2.061926     8B2     2.061929    16A1     2.062627  
       3A2     2.170740    17A1     2.172521     9B1     2.295458  
       9B2     2.299847    18A1     2.339944     4A2     2.340454  
      19A1     2.450322    20A1     2.508598    10B2     2.771590  
      10B1     2.773200    21A1     3.598622     5A2     4.041173  
      22A1     4.041204    11B1     4.102050    11B2     4.138521  
      12B2     4.307934    12B1     4.311417    23A1     4.659859  
      24A1     5.163223    13B2     5.324032    13B1     5.328887  
      25A1     6.152514    14B1     6.485527    14B2     6.485527  
       6A2     6.637623    26A1     6.637736     7A2     7.057596  
      27A1     7.057817    15B2     7.187235    15B1     7.201389  
      16B1     7.258819    16B2     7.261331    28A1     7.412180  
      29A1     7.738981    30A1    13.116226  

    Final Occupation by Irrep:
             A1    A2    B1    B2 
    DOCC [     3,    0,    1,    0 ]
    SOCC [     0,    0,    0,    1 ]

  @UHF Final Energy:   -75.42189686670415

   => Energetics <=

    Nuclear Repulsion Energy =              4.4098100889166671
    One-Electron Energy =                -112.7312238614086084
    Two-Electron Energy =                  32.8995169057877916
    Total Energy =                        -75.4218968667041452

  UHF NO Occupations:
  HONO-2 :    2 A1 1.9992484
  HONO-1 :    3 A1 1.9978872
  HONO-0 :    1 B2 1.0000000
  LUNO+0 :    4 A1 0.0021128
  LUNO+1 :    5 A1 0.0007516
  LUNO+2 :    2 B1 0.0006150
  LUNO+3 :    6 A1 0.0000011


Computation Completed


Properties will be evaluated at   0.000000,   0.000000,   0.000000 [a0]

Properties computed using the SCF density matrix

  Nuclear Dipole Moment: [e a0]
     X:     0.0000      Y:     0.0000      Z:     0.8464

  Electronic Dipole Moment: [e a0]
     X:     0.0000      Y:     0.0000      Z:    -0.1565

  Dipole Moment: [e a0]
     X:     0.0000      Y:     0.0000      Z:     0.6898     Total:     0.6898

  Dipole Moment: [D]
     X:     0.0000      Y:     0.0000      Z:     1.7533     Total:     1.7533


*** tstop() called on c4-20.compute.lan at Tue Feb 23 13:21:04 2021
Module time:
	user time   =       0.98 seconds =       0.02 minutes
	system time =       0.04 seconds =       0.00 minutes
	total time  =          1 seconds =       0.02 minutes
Total time:
	user time   =       0.98 seconds =       0.02 minutes
	system time =       0.04 seconds =       0.00 minutes
	total time  =          1 seconds =       0.02 minutes

*** tstart() called on c4-20.compute.lan
*** at Tue Feb 23 13:21:04 2021


         ------------------------------------------------------------
                                   SCF GRAD                          
                          Rob Parrish, Justin Turney,                
                       Andy Simmonett, and Alex Sokolov              
         ------------------------------------------------------------

  ==> Geometry <==

    Molecular point group: c2v
    Full point group: C_inf_v

    Geometry (in Angstrom), charge = 0, multiplicity = 2:

       Center              X                  Y                   Z               Mass       
    ------------   -----------------  -----------------  -----------------  -----------------
         O            0.000000000000     0.000000000000    -0.056903302100    15.994914619570
         H            0.000000000000     0.000000000000     0.903096697900     1.007825032230

  Nuclear repulsion =    4.409810088916667

  ==> Basis Set <==

  Basis Set: AUG-CC-PVTZ
    Blend: AUG-CC-PVTZ
    Number of shells: 23
    Number of basis function: 69
    Number of Cartesian functions: 80
    Spherical Harmonics?: true
    Max angular momentum: 3

  ==> DirectJKGrad: Integral-Direct SCF Gradients <==

    Gradient:                    1
    J tasked:                  Yes
    K tasked:                  Yes
    wK tasked:                  No
    Integrals threads:           1
    Schwarz Cutoff:          0E+00


  -Total Gradient:
     Atom            X                  Y                   Z
    ------   -----------------  -----------------  -----------------
       1        0.000000000000     0.000000000000    -0.008869943488
       2        0.000000000000     0.000000000000     0.008869943488


*** tstop() called on c4-20.compute.lan at Tue Feb 23 13:21:06 2021
Module time:
	user time   =       1.55 seconds =       0.03 minutes
	system time =       0.06 seconds =       0.00 minutes
	total time  =          2 seconds =       0.03 minutes
Total time:
	user time   =       2.53 seconds =       0.04 minutes
	system time =       0.10 seconds =       0.00 minutes
	total time  =          3 seconds =       0.05 minutes

			-----------------------------------------
			 OPTKING 2.0: for geometry optimizations 
			  - R.A. King,  Bethel University        
			-----------------------------------------

	Internal coordinates to be generated automatically.
	Detected frag 1 with atoms:  1 2
	---Fragment 1 Bond Connectivity---
	 1 : 2
	 2 : 1

	---Fragment 1 Geometry and Gradient---
	 O           0.0000000000        0.0000000000       -0.1075316566
	 H           0.0000000000        0.0000000000        1.7066054238
	             0.0000000000        0.0000000000       -0.0088699435
	             0.0000000000        0.0000000000        0.0088699435

	Previous optimization step data not found.  Starting new optimization.

	---Fragment 1 Intrafragment Coordinates---
	 - Coordinate -           - BOHR/RAD -       - ANG/DEG -
	 R(1,2)           =         1.814137	       0.960000

	Current energy   :       -75.4218968667

	Generating empirical Hessian (Schlegel '84) for each fragment.
	Taking RFO optimization step.
	Going to follow RFO solution 1.
	Using RFO vector 1.
	Norm of target step-size    0.01599
	Projected energy change by RFO approximation:        -0.0000140191

	Back-transformation to cartesian coordinates...
	Successfully converged to displaced geometry.

	--- Internal Coordinate Step in ANG or DEG, aJ/ANG or AJ/DEG ---
	 ---------------------------------------------------------------------------
	   Coordinate                Previous        Force       Change         New 
	   ----------                --------       ------       ------       ------
	    1 R(1,2)          =      0.960000    -0.073077    -0.008459     0.951541
	 ---------------------------------------------------------------------------
	Successfully symmetrized geometry.

  ==> Convergence Check <==

  Measures of convergence in internal coordinates in au.
  Criteria marked as inactive (o), active & met (*), and active & unmet ( ).
  --------------------------------------------------------------------------------------------- ~
   Step     Total Energy     Delta E     MAX Force     RMS Force      MAX Disp      RMS Disp    ~
  --------------------------------------------------------------------------------------------- ~
    Convergence Criteria             o    2.00e-06 *    1.00e-06 *    6.00e-06 *    4.00e-06 *  ~
  --------------------------------------------------------------------------------------------- ~
      1     -75.42189687   -7.54e+01 o    8.87e-03      8.87e-03      1.60e-02      1.60e-02    ~
  ---------------------------------------------------------------------------------------------

	Writing optimization data to binary file.
	Structure for next step:
	Cartesian Geometry (in Angstrom)
	    O     0.0000000000   0.0000000000  -0.0526737323
	    H     0.0000000000   0.0000000000   0.8988671247
			--------------------------
			 OPTKING Finished Execution 
			--------------------------

    Structure for next step:
    Molecular point group: c2v
    Full point group: C_inf_v

    Geometry (in Angstrom), charge = 0, multiplicity = 2:

    O       
    H             1          R1

    R1        =    0.9515408607

gradient() will perform analytic gradient computation.

*** tstart() called on c4-20.compute.lan
*** at Tue Feb 23 13:21:06 2021

   => Loading Basis Set <=

    Name: AUG-CC-PVTZ
    Role: ORBITAL
    Keyword: BASIS
    atoms 1 entry O          line   331 file /apps/gb/PSI4/1.4.0/share/psi4/basis/aug-cc-pvtz.gbs 
    atoms 2 entry H          line    40 file /apps/gb/PSI4/1.4.0/share/psi4/basis/aug-cc-pvtz.gbs 


         ---------------------------------------------------------
                                   SCF
               by Justin Turney, Rob Parrish, Andy Simmonett
                          and Daniel G. A. Smith
                              UHF Reference
                        1 Threads,   9536 MiB Core
         ---------------------------------------------------------

  ==> Geometry <==

    Molecular point group: c2v
    Full point group: C_inf_v

    Geometry (in Angstrom), charge = 0, multiplicity = 2:

       Center              X                  Y                   Z               Mass       
    ------------   -----------------  -----------------  -----------------  -----------------
         O            0.000000000000     0.000000000000    -0.056401892771    15.994914619570
         H            0.000000000000     0.000000000000     0.895138967974     1.007825032230

  Running in c2v symmetry.

  Rotational constants: A = ************  B =     19.63783  C =     19.63783 [cm^-1]
  Rotational constants: A = ************  B = 588727.26911  C = 588727.26911 [MHz]
  Nuclear repulsion =    4.449013027191921

  Charge       = 0
  Multiplicity = 2
  Electrons    = 9
  Nalpha       = 5
  Nbeta        = 4

  ==> Algorithm <==

  SCF Algorithm Type is PK.
  DIIS enabled.
  MOM disabled.
  Fractional occupation disabled.
  Guess Type is READ.
  Energy threshold   = 1.00e-10
  Density threshold  = 1.00e-08
  Integral threshold = 0.00e+00

  ==> Primary Basis <==

  Basis Set: AUG-CC-PVTZ
    Blend: AUG-CC-PVTZ
    Number of shells: 23
    Number of basis function: 69
    Number of Cartesian functions: 80
    Spherical Harmonics?: true
    Max angular momentum: 3

   => Loading Basis Set <=

    Name: AUG-CC-PVTZ
    Role: ORBITAL
    Keyword: BASIS
    atoms 1 entry O          line   331 file /apps/gb/PSI4/1.4.0/share/psi4/basis/aug-cc-pvtz.gbs 
    atoms 2 entry H          line    40 file /apps/gb/PSI4/1.4.0/share/psi4/basis/aug-cc-pvtz.gbs 

  Reading orbitals from file 180, no projection.

  ==> Pre-Iterations <==

   -------------------------------------------------------
    Irrep   Nso     Nmo     Nalpha   Nbeta   Ndocc  Nsocc
   -------------------------------------------------------
     A1        30      30       0       0       0       0
     A2         7       7       0       0       0       0
     B1        16      16       0       0       0       0
     B2        16      16       0       0       0       0
   -------------------------------------------------------
    Total      69      69       5       4       4       1
   -------------------------------------------------------

  ==> Integral Setup <==

  Using in-core PK algorithm.
   Calculation information:
      Number of atoms:                   2
      Number of AO shells:              23
      Number of primitives:             41
      Number of atomic orbitals:        80
      Number of basis functions:        69

      Integral cutoff                 1.00e-12
      Number of threads:                 1

  Performing in-core PK
  Using 5834640 doubles for integral storage.
  We computed 38226 shell quartets total.
  Whereas there are 38226 unique shell quartets.

  ==> DiskJK: Disk-Based J/K Matrices <==

    J tasked:                  Yes
    K tasked:                  Yes
    wK tasked:                  No
    Memory [MiB]:             7152
    Schwarz Cutoff:          1E-12

    OpenMP threads:              1

  Minimum eigenvalue in the overlap matrix is 4.8216811239E-04.
  Using Symmetric Orthogonalization.

  SCF Guess: Orbitals guess was supplied from a previous computation.

  ==> Iterations <==

                        Total Energy        Delta E     RMS |[F,P]|

   @UHF iter   0:   -75.42653899318449   -7.54265e+01   5.57770e-04 
   @UHF iter   1:   -75.42196409029000    4.57490e-03   6.39382e-05 DIIS
   @UHF iter   2:   -75.42196665418831   -2.56390e-06   1.27305e-05 DIIS
   @UHF iter   3:   -75.42196679983373   -1.45645e-07   4.44742e-06 DIIS
   @UHF iter   4:   -75.42196683810454   -3.82708e-08   1.83648e-06 DIIS
   @UHF iter   5:   -75.42196684492325   -6.81871e-09   9.59774e-07 DIIS
   @UHF iter   6:   -75.42196684683344   -1.91019e-09   4.28886e-07 DIIS
   @UHF iter   7:   -75.42196684735636   -5.22917e-10   9.59783e-08 DIIS
   @UHF iter   8:   -75.42196684737858   -2.22258e-11   1.17455e-08 DIIS
   @UHF iter   9:   -75.42196684737881   -2.27374e-13   2.67222e-09 DIIS
  Energy and wave function converged.


  ==> Post-Iterations <==

   @Spin Contamination Metric:   6.852162871E-03
   @S^2 Expected:                7.500000000E-01
   @S^2 Observed:                7.568521629E-01
   @S   Expected:                5.000000000E-01
   @S   Observed:                5.000000000E-01

    Orbital Energies [Eh]
    ---------------------

    Alpha Occupied:                                                       

       1A1   -20.639574     2A1    -1.395575     3A1    -0.688217  
       1B2    -0.659357     1B1    -0.562525  

    Alpha Virtual:                                                        

       4A1     0.030058     5A1     0.136547     2B2     0.152355  
       2B1     0.161611     6A1     0.184732     7A1     0.263383  
       3B2     0.269295     3B1     0.275891     8A1     0.430061  
       9A1     0.631067     1A2     0.638788    10A1     0.651586  
       4B2     0.714052     4B1     0.728798     5B2     0.851482  
       5B1     0.878929    11A1     0.879030    12A1     0.922086  
       2A2     0.939494    13A1     0.940535     6B2     0.983818  
      14A1     1.006640     6B1     1.010129     7B2     1.505009  
       7B1     1.524834    15A1     1.689139     8B2     2.042497  
       8B1     2.042517    16A1     2.050711     3A2     2.097378  
      17A1     2.098114     9B2     2.256670     9B1     2.293279  
      18A1     2.325268     4A2     2.326489    19A1     2.425256  
      20A1     2.501486    10B2     2.727143    10B1     2.766503  
      21A1     3.604938    11B2     4.033236     5A2     4.045543  
      22A1     4.045809    11B1     4.089457    12B2     4.303085  
      12B1     4.316945    23A1     4.659289    24A1     5.165688  
      13B2     5.306162    13B1     5.345476    25A1     6.124902  
      14B2     6.430867    14B1     6.430890     6A2     6.600400  
      26A1     6.602086     7A2     6.965429    27A1     6.965513  
      15B2     7.137002    15B1     7.194088    16B2     7.201076  
      16B1     7.257777    28A1     7.420171    29A1     7.729130  
      30A1    13.243618  

    Beta Occupied:                                                        

       1A1   -20.600062     2A1    -1.238492     3A1    -0.643975  
       1B1    -0.514643  

    Beta Virtual:                                                         

       4A1     0.031161     1B2     0.062840     5A1     0.138913  
       2B1     0.163778     6A1     0.188968     2B2     0.209100  
       7A1     0.266539     3B1     0.275895     3B2     0.290602  
       8A1     0.440111     9A1     0.648466     1A2     0.655540  
      10A1     0.657164     4B1     0.727073     4B2     0.730801  
      11A1     0.884042     5B1     0.885816     5B2     0.912244  
      12A1     0.932626     2A2     0.941543    13A1     0.942119  
       6B1     1.017737    14A1     1.017871     6B2     1.059505  
       7B1     1.524830     7B2     1.531270    15A1     1.708037  
       8B1     2.061593     8B2     2.061596    16A1     2.072375  
       3A2     2.170800    17A1     2.172730     9B1     2.297325  
       9B2     2.301353    18A1     2.342130     4A2     2.342701  
      19A1     2.441146    20A1     2.516072    10B2     2.772238  
      10B1     2.773466    21A1     3.611000     5A2     4.048639  
      22A1     4.048672    11B1     4.107072    11B2     4.142732  
      12B2     4.311530    12B1     4.314358    23A1     4.669238  
      24A1     5.190150    13B2     5.347686    13B1     5.352877  
      25A1     6.149128    14B1     6.485140    14B2     6.485140  
       6A2     6.641007    26A1     6.641120     7A2     7.057368  
      27A1     7.057590    15B2     7.195077    15B1     7.205922  
      16B2     7.273522    16B1     7.274353    28A1     7.437163  
      29A1     7.757289    30A1    13.276109  

    Final Occupation by Irrep:
             A1    A2    B1    B2 
    DOCC [     3,    0,    1,    0 ]
    SOCC [     0,    0,    0,    1 ]

  @UHF Final Energy:   -75.42196684737881

   => Energetics <=

    Nuclear Repulsion Energy =              4.4490130271919215
    One-Electron Energy =                -112.7995418475933747
    Two-Electron Energy =                  32.9285619730226387
    Total Energy =                        -75.4219668473788118

  UHF NO Occupations:
  HONO-2 :    2 A1 1.9992845
  HONO-1 :    3 A1 1.9978988
  HONO-0 :    1 B2 1.0000000
  LUNO+0 :    4 A1 0.0021012
  LUNO+1 :    5 A1 0.0007155
  LUNO+2 :    2 B1 0.0006110
  LUNO+3 :    6 A1 0.0000011


Computation Completed


Properties will be evaluated at   0.000000,   0.000000,   0.000000 [a0]

Properties computed using the SCF density matrix

  Nuclear Dipole Moment: [e a0]
     X:     0.0000      Y:     0.0000      Z:     0.8389

  Electronic Dipole Moment: [e a0]
     X:     0.0000      Y:     0.0000      Z:    -0.1518

  Dipole Moment: [e a0]
     X:     0.0000      Y:     0.0000      Z:     0.6871     Total:     0.6871

  Dipole Moment: [D]
     X:     0.0000      Y:     0.0000      Z:     1.7465     Total:     1.7465


*** tstop() called on c4-20.compute.lan at Tue Feb 23 13:21:07 2021
Module time:
	user time   =       0.66 seconds =       0.01 minutes
	system time =       0.06 seconds =       0.00 minutes
	total time  =          1 seconds =       0.02 minutes
Total time:
	user time   =       3.20 seconds =       0.05 minutes
	system time =       0.17 seconds =       0.00 minutes
	total time  =          4 seconds =       0.07 minutes

*** tstart() called on c4-20.compute.lan
*** at Tue Feb 23 13:21:07 2021


         ------------------------------------------------------------
                                   SCF GRAD                          
                          Rob Parrish, Justin Turney,                
                       Andy Simmonett, and Alex Sokolov              
         ------------------------------------------------------------

  ==> Geometry <==

    Molecular point group: c2v
    Full point group: C_inf_v

    Geometry (in Angstrom), charge = 0, multiplicity = 2:

       Center              X                  Y                   Z               Mass       
    ------------   -----------------  -----------------  -----------------  -----------------
         O            0.000000000000     0.000000000000    -0.056401892771    15.994914619570
         H            0.000000000000     0.000000000000     0.895138967974     1.007825032230

  Nuclear repulsion =    4.449013027191921

  ==> Basis Set <==

  Basis Set: AUG-CC-PVTZ
    Blend: AUG-CC-PVTZ
    Number of shells: 23
    Number of basis function: 69
    Number of Cartesian functions: 80
    Spherical Harmonics?: true
    Max angular momentum: 3

  ==> DirectJKGrad: Integral-Direct SCF Gradients <==

    Gradient:                    1
    J tasked:                  Yes
    K tasked:                  Yes
    wK tasked:                  No
    Integrals threads:           1
    Schwarz Cutoff:          0E+00


  -Total Gradient:
     Atom            X                  Y                   Z
    ------   -----------------  -----------------  -----------------
       1        0.000000000000     0.000000000000     0.000201374338
       2        0.000000000000     0.000000000000    -0.000201374338


*** tstop() called on c4-20.compute.lan at Tue Feb 23 13:21:08 2021
Module time:
	user time   =       1.55 seconds =       0.03 minutes
	system time =       0.03 seconds =       0.00 minutes
	total time  =          1 seconds =       0.02 minutes
Total time:
	user time   =       4.75 seconds =       0.08 minutes
	system time =       0.20 seconds =       0.00 minutes
	total time  =          5 seconds =       0.08 minutes

			-----------------------------------------
			 OPTKING 2.0: for geometry optimizations 
			  - R.A. King,  Bethel University        
			-----------------------------------------

	Previous internal coordinate definitions found.
	---Fragment 1 Geometry and Gradient---
	 O           0.0000000000        0.0000000000       -0.1065841303
	 H           0.0000000000        0.0000000000        1.6915674937
	             0.0000000000        0.0000000000        0.0002013743
	             0.0000000000        0.0000000000       -0.0002013743

	---Fragment 1 Intrafragment Coordinates---
	 - Coordinate -           - BOHR/RAD -       - ANG/DEG -
	 R(1,2)           =         1.798152	       0.951541

	Current energy   :       -75.4219668474

	Energy change for the previous step:
		Projected    :        -0.0000140191
		Actual       :        -0.0000699807
	Energy ratio indicates good step: Trust radius increased to 1.000e+00.


	Performing BFGS update.
	Previous computed or guess Hessian on step 1.
	Steps to be used in Hessian update: 1
	Taking RFO optimization step.
	Going to follow RFO solution 1.
	Using RFO vector 1.
	Norm of target step-size    0.00035
	Projected energy change by RFO approximation:        -0.0000000085

	Back-transformation to cartesian coordinates...
	Successfully converged to displaced geometry.

	--- Internal Coordinate Step in ANG or DEG, aJ/ANG or AJ/DEG ---
	 ---------------------------------------------------------------------------
	   Coordinate                Previous        Force       Change         New 
	   ----------                --------       ------       ------       ------
	    1 R(1,2)          =      0.951541     0.001659     0.000188     0.951729
	 ---------------------------------------------------------------------------
	Successfully symmetrized geometry.

  ==> Convergence Check <==

  Measures of convergence in internal coordinates in au.
  Criteria marked as inactive (o), active & met (*), and active & unmet ( ).
  ---------------------------------------------------------------------------------------------
   Step     Total Energy     Delta E     MAX Force     RMS Force      MAX Disp      RMS Disp   
  ---------------------------------------------------------------------------------------------
    Convergence Criteria             o    2.00e-06 *    1.00e-06 *    6.00e-06 *    4.00e-06 *
  ---------------------------------------------------------------------------------------------
      2     -75.42196685   -7.00e-05 o    2.01e-04      2.01e-04      3.55e-04      3.55e-04    ~
  ---------------------------------------------------------------------------------------------

	Writing optimization data to binary file.
	Structure for next step:
	Cartesian Geometry (in Angstrom)
	    O     0.0000000000   0.0000000000  -0.0564957848
	    H     0.0000000000   0.0000000000   0.8952328567
			--------------------------
			 OPTKING Finished Execution 
			--------------------------

    Structure for next step:
    Molecular point group: c2v
    Full point group: C_inf_v

    Geometry (in Angstrom), charge = 0, multiplicity = 2:

    O       
    H             1          R1

    R1        =    0.9517286453

gradient() will perform analytic gradient computation.

*** tstart() called on c4-20.compute.lan
*** at Tue Feb 23 13:21:08 2021

   => Loading Basis Set <=

    Name: AUG-CC-PVTZ
    Role: ORBITAL
    Keyword: BASIS
    atoms 1 entry O          line   331 file /apps/gb/PSI4/1.4.0/share/psi4/basis/aug-cc-pvtz.gbs 
    atoms 2 entry H          line    40 file /apps/gb/PSI4/1.4.0/share/psi4/basis/aug-cc-pvtz.gbs 


         ---------------------------------------------------------
                                   SCF
               by Justin Turney, Rob Parrish, Andy Simmonett
                          and Daniel G. A. Smith
                              UHF Reference
                        1 Threads,   9536 MiB Core
         ---------------------------------------------------------

  ==> Geometry <==

    Molecular point group: c2v
    Full point group: C_inf_v

    Geometry (in Angstrom), charge = 0, multiplicity = 2:

       Center              X                  Y                   Z               Mass       
    ------------   -----------------  -----------------  -----------------  -----------------
         O            0.000000000000     0.000000000000    -0.056413023563    15.994914619570
         H            0.000000000000     0.000000000000     0.895315621734     1.007825032230

  Running in c2v symmetry.

  Rotational constants: A = ************  B =     19.63008  C =     19.63008 [cm^-1]
  Rotational constants: A = ************  B = 588494.96974  C = 588494.96974 [MHz]
  Nuclear repulsion =    4.448135197232213

  Charge       = 0
  Multiplicity = 2
  Electrons    = 9
  Nalpha       = 5
  Nbeta        = 4

  ==> Algorithm <==

  SCF Algorithm Type is PK.
  DIIS enabled.
  MOM disabled.
  Fractional occupation disabled.
  Guess Type is READ.
  Energy threshold   = 1.00e-10
  Density threshold  = 1.00e-08
  Integral threshold = 0.00e+00

  ==> Primary Basis <==

  Basis Set: AUG-CC-PVTZ
    Blend: AUG-CC-PVTZ
    Number of shells: 23
    Number of basis function: 69
    Number of Cartesian functions: 80
    Spherical Harmonics?: true
    Max angular momentum: 3

   => Loading Basis Set <=

    Name: AUG-CC-PVTZ
    Role: ORBITAL
    Keyword: BASIS
    atoms 1 entry O          line   331 file /apps/gb/PSI4/1.4.0/share/psi4/basis/aug-cc-pvtz.gbs 
    atoms 2 entry H          line    40 file /apps/gb/PSI4/1.4.0/share/psi4/basis/aug-cc-pvtz.gbs 

  Reading orbitals from file 180, no projection.

  ==> Pre-Iterations <==

   -------------------------------------------------------
    Irrep   Nso     Nmo     Nalpha   Nbeta   Ndocc  Nsocc
   -------------------------------------------------------
     A1        30      30       0       0       0       0
     A2         7       7       0       0       0       0
     B1        16      16       0       0       0       0
     B2        16      16       0       0       0       0
   -------------------------------------------------------
    Total      69      69       5       4       4       1
   -------------------------------------------------------

  ==> Integral Setup <==

  Using in-core PK algorithm.
   Calculation information:
      Number of atoms:                   2
      Number of AO shells:              23
      Number of primitives:             41
      Number of atomic orbitals:        80
      Number of basis functions:        69

      Integral cutoff                 1.00e-12
      Number of threads:                 1

  Performing in-core PK
  Using 5834640 doubles for integral storage.
  We computed 38226 shell quartets total.
  Whereas there are 38226 unique shell quartets.

  ==> DiskJK: Disk-Based J/K Matrices <==

    J tasked:                  Yes
    K tasked:                  Yes
    wK tasked:                  No
    Memory [MiB]:             7152
    Schwarz Cutoff:          1E-12

    OpenMP threads:              1

  Minimum eigenvalue in the overlap matrix is 4.8239330464E-04.
  Using Symmetric Orthogonalization.

  SCF Guess: Orbitals guess was supplied from a previous computation.

  ==> Iterations <==

                        Total Energy        Delta E     RMS |[F,P]|

   @UHF iter   0:   -75.42186549847415   -7.54219e+01   1.26253e-05 
   @UHF iter   1:   -75.42196688071087   -1.01382e-04   1.43342e-06 DIIS
   @UHF iter   2:   -75.42196688199360   -1.28273e-09   2.84814e-07 DIIS
   @UHF iter   3:   -75.42196688206477   -7.11680e-11   9.80796e-08 DIIS
   @UHF iter   4:   -75.42196688208310   -1.83320e-11   4.13247e-08 DIIS
   @UHF iter   5:   -75.42196688208637   -3.26850e-12   2.16654e-08 DIIS
   @UHF iter   6:   -75.42196688208742   -1.05160e-12   9.49798e-09 DIIS
  Energy and wave function converged.


  ==> Post-Iterations <==

   @Spin Contamination Metric:   6.854355761E-03
   @S^2 Expected:                7.500000000E-01
   @S^2 Observed:                7.568543558E-01
   @S   Expected:                5.000000000E-01
   @S   Observed:                5.000000000E-01

    Orbital Energies [Eh]
    ---------------------

    Alpha Occupied:                                                       

       1A1   -20.639590     2A1    -1.395517     3A1    -0.688162  
       1B2    -0.659349     1B1    -0.562516  

    Alpha Virtual:                                                        

       4A1     0.030055     5A1     0.136545     2B2     0.152360  
       2B1     0.161617     6A1     0.184724     7A1     0.263375  
       3B2     0.269289     3B1     0.275884     8A1     0.430023  
       9A1     0.631055     1A2     0.638787    10A1     0.651564  
       4B2     0.714055     4B1     0.728800     5B2     0.851506  
       5B1     0.878950    11A1     0.878996    12A1     0.922126  
       2A2     0.939478    13A1     0.940519     6B2     0.983792  
      14A1     1.006563     6B1     1.010107     7B2     1.504918  
       7B1     1.524736    15A1     1.689216     8B2     2.042505  
       8B1     2.042524    16A1     2.050493     3A2     2.097381  
      17A1     2.098114     9B2     2.256620     9B1     2.293234  
      18A1     2.325218     4A2     2.326435    19A1     2.425441  
      20A1     2.501324    10B2     2.727152    10B1     2.766503  
      21A1     3.604672    11B2     4.033105     5A2     4.045380  
      22A1     4.045645    11B1     4.089338    12B2     4.303039  
      12B1     4.316886    23A1     4.659090    24A1     5.165094  
      13B2     5.305637    13B1     5.344944    25A1     6.124964  
      14B2     6.430875    14B1     6.430898     6A2     6.600323  
      26A1     6.602009     7A2     6.965432    27A1     6.965514  
      15B2     7.137021    15B1     7.194067    16B2     7.200598  
      16B1     7.257342    28A1     7.419584    29A1     7.728712  
      30A1    13.240026  

    Beta Occupied:                                                        

       1A1   -20.600076     2A1    -1.238421     3A1    -0.643924  
       1B1    -0.514633  

    Beta Virtual:                                                         

       4A1     0.031159     1B2     0.062845     5A1     0.138913  
       2B1     0.163783     6A1     0.188960     2B2     0.209111  
       7A1     0.266531     3B1     0.275887     3B2     0.290591  
       8A1     0.440076     9A1     0.648433     1A2     0.655538  
      10A1     0.657156     4B1     0.727074     4B2     0.730802  
      11A1     0.884000     5B1     0.885837     5B2     0.912251  
      12A1     0.932678     2A2     0.941527    13A1     0.942105  
       6B1     1.017718    14A1     1.017788     6B2     1.059508  
       7B1     1.524728     7B2     1.531156    15A1     1.708112  
       8B1     2.061601     8B2     2.061603    16A1     2.072163  
       3A2     2.170799    17A1     2.172725     9B1     2.297284  
       9B2     2.301319    18A1     2.342081     4A2     2.342651  
      19A1     2.441342    20A1     2.515902    10B2     2.772226  
      10B1     2.773463    21A1     3.610728     5A2     4.048472  
      22A1     4.048504    11B1     4.106959    11B2     4.142638  
      12B2     4.311447    12B1     4.314291    23A1     4.669039  
      24A1     5.189539    13B2     5.347162    13B1     5.352345  
      25A1     6.149193    14B1     6.485149    14B2     6.485149  
       6A2     6.640931    26A1     6.641044     7A2     7.057373  
      27A1     7.057595    15B2     7.194949    15B1     7.205867  
      16B2     7.273199    16B1     7.273956    28A1     7.436582  
      29A1     7.756880    30A1    13.272523  

    Final Occupation by Irrep:
             A1    A2    B1    B2 
    DOCC [     3,    0,    1,    0 ]
    SOCC [     0,    0,    0,    1 ]

  @UHF Final Energy:   -75.42196688208742

   => Energetics <=

    Nuclear Repulsion Energy =              4.4481351972322125
    One-Electron Energy =                -112.7980147636505421
    Two-Electron Energy =                  32.9279126843309058
    Total Energy =                        -75.4219668820874176

  UHF NO Occupations:
  HONO-2 :    2 A1 1.9992837
  HONO-1 :    3 A1 1.9978986
  HONO-0 :    1 B2 1.0000000
  LUNO+0 :    4 A1 0.0021014
  LUNO+1 :    5 A1 0.0007163
  LUNO+2 :    2 B1 0.0006111
  LUNO+3 :    6 A1 0.0000011


Computation Completed


Properties will be evaluated at   0.000000,   0.000000,   0.000000 [a0]

Properties computed using the SCF density matrix

  Nuclear Dipole Moment: [e a0]
     X:     0.0000      Y:     0.0000      Z:     0.8391

  Electronic Dipole Moment: [e a0]
     X:     0.0000      Y:     0.0000      Z:    -0.1519

  Dipole Moment: [e a0]
     X:     0.0000      Y:     0.0000      Z:     0.6872     Total:     0.6872

  Dipole Moment: [D]
     X:     0.0000      Y:     0.0000      Z:     1.7467     Total:     1.7467


*** tstop() called on c4-20.compute.lan at Tue Feb 23 13:21:09 2021
Module time:
	user time   =       0.60 seconds =       0.01 minutes
	system time =       0.03 seconds =       0.00 minutes
	total time  =          1 seconds =       0.02 minutes
Total time:
	user time   =       5.36 seconds =       0.09 minutes
	system time =       0.24 seconds =       0.00 minutes
	total time  =          6 seconds =       0.10 minutes

*** tstart() called on c4-20.compute.lan
*** at Tue Feb 23 13:21:09 2021


         ------------------------------------------------------------
                                   SCF GRAD                          
                          Rob Parrish, Justin Turney,                
                       Andy Simmonett, and Alex Sokolov              
         ------------------------------------------------------------

  ==> Geometry <==

    Molecular point group: c2v
    Full point group: C_inf_v

    Geometry (in Angstrom), charge = 0, multiplicity = 2:

       Center              X                  Y                   Z               Mass       
    ------------   -----------------  -----------------  -----------------  -----------------
         O            0.000000000000     0.000000000000    -0.056413023563    15.994914619570
         H            0.000000000000     0.000000000000     0.895315621734     1.007825032230

  Nuclear repulsion =    4.448135197232213

  ==> Basis Set <==

  Basis Set: AUG-CC-PVTZ
    Blend: AUG-CC-PVTZ
    Number of shells: 23
    Number of basis function: 69
    Number of Cartesian functions: 80
    Spherical Harmonics?: true
    Max angular momentum: 3

  ==> DirectJKGrad: Integral-Direct SCF Gradients <==

    Gradient:                    1
    J tasked:                  Yes
    K tasked:                  Yes
    wK tasked:                  No
    Integrals threads:           1
    Schwarz Cutoff:          0E+00


  -Total Gradient:
     Atom            X                  Y                   Z
    ------   -----------------  -----------------  -----------------
       1        0.000000000000     0.000000000000    -0.000005711043
       2        0.000000000000     0.000000000000     0.000005711043


*** tstop() called on c4-20.compute.lan at Tue Feb 23 13:21:11 2021
Module time:
	user time   =       1.67 seconds =       0.03 minutes
	system time =       0.03 seconds =       0.00 minutes
	total time  =          2 seconds =       0.03 minutes
Total time:
	user time   =       7.03 seconds =       0.12 minutes
	system time =       0.27 seconds =       0.00 minutes
	total time  =          8 seconds =       0.13 minutes

			-----------------------------------------
			 OPTKING 2.0: for geometry optimizations 
			  - R.A. King,  Bethel University        
			-----------------------------------------

	Previous internal coordinate definitions found.
	---Fragment 1 Geometry and Gradient---
	 O           0.0000000000        0.0000000000       -0.1066051644
	 H           0.0000000000        0.0000000000        1.6919013209
	             0.0000000000        0.0000000000       -0.0000057110
	             0.0000000000        0.0000000000        0.0000057110

	---Fragment 1 Intrafragment Coordinates---
	 - Coordinate -           - BOHR/RAD -       - ANG/DEG -
	 R(1,2)           =         1.798506	       0.951729

	Current energy   :       -75.4219668821

	Energy change for the previous step:
		Projected    :        -0.0000000085
		Actual       :        -0.0000000347

	Performing BFGS update.
	Previous computed or guess Hessian on step 1.
	Denominators (dg)(dq) or (dq)(dq) are very small.
	 Skipping Hessian update for step 2.
	Steps to be used in Hessian update: 1
	Taking RFO optimization step.
	Going to follow RFO solution 1.
	Using RFO vector 1.
	Norm of target step-size    0.00001
	Projected energy change by RFO approximation:        -0.0000000000

	Back-transformation to cartesian coordinates...
	Successfully converged to displaced geometry.

	--- Internal Coordinate Step in ANG or DEG, aJ/ANG or AJ/DEG ---
	 ---------------------------------------------------------------------------
	   Coordinate                Previous        Force       Change         New 
	   ----------                --------       ------       ------       ------
	    1 R(1,2)          =      0.951729    -0.000047    -0.000005     0.951723
	 ---------------------------------------------------------------------------
	Successfully symmetrized geometry.

  ==> Convergence Check <==

  Measures of convergence in internal coordinates in au.
  Criteria marked as inactive (o), active & met (*), and active & unmet ( ).
  ---------------------------------------------------------------------------------------------
   Step     Total Energy     Delta E     MAX Force     RMS Force      MAX Disp      RMS Disp   
  ---------------------------------------------------------------------------------------------
    Convergence Criteria             o    2.00e-06 *    1.00e-06 *    6.00e-06 *    4.00e-06 *
  ---------------------------------------------------------------------------------------------
      3     -75.42196688   -3.47e-08 o    5.71e-06      5.71e-06      1.01e-05      1.01e-05    ~
  ---------------------------------------------------------------------------------------------

	Writing optimization data to binary file.
	Structure for next step:
	Cartesian Geometry (in Angstrom)
	    O     0.0000000000   0.0000000000  -0.0564103588
	    H     0.0000000000   0.0000000000   0.8953129537
			--------------------------
			 OPTKING Finished Execution 
			--------------------------

    Structure for next step:
    Molecular point group: c2v
    Full point group: C_inf_v

    Geometry (in Angstrom), charge = 0, multiplicity = 2:

    O       
    H             1          R1

    R1        =    0.9517233162

gradient() will perform analytic gradient computation.

*** tstart() called on c4-20.compute.lan
*** at Tue Feb 23 13:21:11 2021

   => Loading Basis Set <=

    Name: AUG-CC-PVTZ
    Role: ORBITAL
    Keyword: BASIS
    atoms 1 entry O          line   331 file /apps/gb/PSI4/1.4.0/share/psi4/basis/aug-cc-pvtz.gbs 
    atoms 2 entry H          line    40 file /apps/gb/PSI4/1.4.0/share/psi4/basis/aug-cc-pvtz.gbs 


         ---------------------------------------------------------
                                   SCF
               by Justin Turney, Rob Parrish, Andy Simmonett
                          and Daniel G. A. Smith
                              UHF Reference
                        1 Threads,   9536 MiB Core
         ---------------------------------------------------------

  ==> Geometry <==

    Molecular point group: c2v
    Full point group: C_inf_v

    Geometry (in Angstrom), charge = 0, multiplicity = 2:

       Center              X                  Y                   Z               Mass       
    ------------   -----------------  -----------------  -----------------  -----------------
         O            0.000000000000     0.000000000000    -0.056412707687    15.994914619570
         H            0.000000000000     0.000000000000     0.895310608546     1.007825032230

  Running in c2v symmetry.

  Rotational constants: A = ************  B =     19.63030  C =     19.63030 [cm^-1]
  Rotational constants: A = ************  B = 588501.56018  C = 588501.56018 [MHz]
  Nuclear repulsion =    4.448160104046867

  Charge       = 0
  Multiplicity = 2
  Electrons    = 9
  Nalpha       = 5
  Nbeta        = 4

  ==> Algorithm <==

  SCF Algorithm Type is PK.
  DIIS enabled.
  MOM disabled.
  Fractional occupation disabled.
  Guess Type is READ.
  Energy threshold   = 1.00e-10
  Density threshold  = 1.00e-08
  Integral threshold = 0.00e+00

  ==> Primary Basis <==

  Basis Set: AUG-CC-PVTZ
    Blend: AUG-CC-PVTZ
    Number of shells: 23
    Number of basis function: 69
    Number of Cartesian functions: 80
    Spherical Harmonics?: true
    Max angular momentum: 3

   => Loading Basis Set <=

    Name: AUG-CC-PVTZ
    Role: ORBITAL
    Keyword: BASIS
    atoms 1 entry O          line   331 file /apps/gb/PSI4/1.4.0/share/psi4/basis/aug-cc-pvtz.gbs 
    atoms 2 entry H          line    40 file /apps/gb/PSI4/1.4.0/share/psi4/basis/aug-cc-pvtz.gbs 

  Reading orbitals from file 180, no projection.

  ==> Pre-Iterations <==

   -------------------------------------------------------
    Irrep   Nso     Nmo     Nalpha   Nbeta   Ndocc  Nsocc
   -------------------------------------------------------
     A1        30      30       0       0       0       0
     A2         7       7       0       0       0       0
     B1        16      16       0       0       0       0
     B2        16      16       0       0       0       0
   -------------------------------------------------------
    Total      69      69       5       4       4       1
   -------------------------------------------------------

  ==> Integral Setup <==

  Using in-core PK algorithm.
   Calculation information:
      Number of atoms:                   2
      Number of AO shells:              23
      Number of primitives:             41
      Number of atomic orbitals:        80
      Number of basis functions:        69

      Integral cutoff                 1.00e-12
      Number of threads:                 1

  Performing in-core PK
  Using 5834640 doubles for integral storage.
  We computed 38226 shell quartets total.
  Whereas there are 38226 unique shell quartets.

  ==> DiskJK: Disk-Based J/K Matrices <==

    J tasked:                  Yes
    K tasked:                  Yes
    wK tasked:                  No
    Memory [MiB]:             7152
    Schwarz Cutoff:          1E-12

    OpenMP threads:              1

  Minimum eigenvalue in the overlap matrix is 4.8238691273E-04.
  Using Symmetric Orthogonalization.

  SCF Guess: Orbitals guess was supplied from a previous computation.

  ==> Iterations <==

                        Total Energy        Delta E     RMS |[F,P]|

   @UHF iter   0:   -75.42196975932630   -7.54220e+01   3.58168e-07 
   @UHF iter   1:   -75.42196688211440    2.87721e-06   4.07144e-08 DIIS
   @UHF iter   2:   -75.42196688211540   -9.94760e-13   8.03349e-09 DIIS
  Energy and wave function converged.


  ==> Post-Iterations <==

   @Spin Contamination Metric:   6.854320306E-03
   @S^2 Expected:                7.500000000E-01
   @S^2 Observed:                7.568543203E-01
   @S   Expected:                5.000000000E-01
   @S   Observed:                5.000000000E-01

    Orbital Energies [Eh]
    ---------------------

    Alpha Occupied:                                                       

       1A1   -20.639589     2A1    -1.395519     3A1    -0.688164  
       1B2    -0.659349     1B1    -0.562516  

    Alpha Virtual:                                                        

       4A1     0.030055     5A1     0.136545     2B2     0.152360  
       2B1     0.161616     6A1     0.184724     7A1     0.263375  
       3B2     0.269289     3B1     0.275884     8A1     0.430024  
       9A1     0.631055     1A2     0.638787    10A1     0.651565  
       4B2     0.714055     4B1     0.728800     5B2     0.851505  
       5B1     0.878950    11A1     0.878997    12A1     0.922125  
       2A2     0.939478    13A1     0.940519     6B2     0.983793  
      14A1     1.006565     6B1     1.010108     7B2     1.504920  
       7B1     1.524739    15A1     1.689214     8B2     2.042504  
       8B1     2.042524    16A1     2.050499     3A2     2.097381  
      17A1     2.098114     9B2     2.256621     9B1     2.293235  
      18A1     2.325220     4A2     2.326436    19A1     2.425435  
      20A1     2.501328    10B2     2.727152    10B1     2.766503  
      21A1     3.604680    11B2     4.033108     5A2     4.045385  
      22A1     4.045650    11B1     4.089341    12B2     4.303040  
      12B1     4.316887    23A1     4.659096    24A1     5.165111  
      13B2     5.305652    13B1     5.344960    25A1     6.124962  
      14B2     6.430874    14B1     6.430898     6A2     6.600325  
      26A1     6.602012     7A2     6.965432    27A1     6.965514  
      15B2     7.137020    15B1     7.194067    16B2     7.200611  
      16B1     7.257354    28A1     7.419601    29A1     7.728724  
      30A1    13.240128  

    Beta Occupied:                                                        

       1A1   -20.600075     2A1    -1.238423     3A1    -0.643926  
       1B1    -0.514633  

    Beta Virtual:                                                         

       4A1     0.031159     1B2     0.062845     5A1     0.138913  
       2B1     0.163783     6A1     0.188960     2B2     0.209111  
       7A1     0.266531     3B1     0.275887     3B2     0.290591  
       8A1     0.440077     9A1     0.648434     1A2     0.655538  
      10A1     0.657156     4B1     0.727074     4B2     0.730802  
      11A1     0.884002     5B1     0.885836     5B2     0.912251  
      12A1     0.932676     2A2     0.941527    13A1     0.942105  
       6B1     1.017719    14A1     1.017791     6B2     1.059508  
       7B1     1.524730     7B2     1.531159    15A1     1.708110  
       8B1     2.061600     8B2     2.061603    16A1     2.072169  
       3A2     2.170799    17A1     2.172725     9B1     2.297285  
       9B2     2.301320    18A1     2.342083     4A2     2.342653  
      19A1     2.441336    20A1     2.515907    10B2     2.772227  
      10B1     2.773463    21A1     3.610736     5A2     4.048477  
      22A1     4.048509    11B1     4.106962    11B2     4.142640  
      12B2     4.311450    12B1     4.314293    23A1     4.669045  
      24A1     5.189556    13B2     5.347177    13B1     5.352360  
      25A1     6.149191    14B1     6.485148    14B2     6.485148  
       6A2     6.640933    26A1     6.641046     7A2     7.057373  
      27A1     7.057595    15B2     7.194953    15B1     7.205868  
      16B2     7.273208    16B1     7.273968    28A1     7.436598  
      29A1     7.756892    30A1    13.272624  

    Final Occupation by Irrep:
             A1    A2    B1    B2 
    DOCC [     3,    0,    1,    0 ]
    SOCC [     0,    0,    0,    1 ]

  @UHF Final Energy:   -75.42196688211540

   => Energetics <=

    Nuclear Repulsion Energy =              4.4481601040468668
    One-Electron Energy =                -112.7980584073561090
    Two-Electron Energy =                  32.9279314211938399
    Total Energy =                        -75.4219668821154130

  UHF NO Occupations:
  HONO-2 :    2 A1 1.9992837
  HONO-1 :    3 A1 1.9978986
  HONO-0 :    1 B2 1.0000000
  LUNO+0 :    4 A1 0.0021014
  LUNO+1 :    5 A1 0.0007163
  LUNO+2 :    2 B1 0.0006111
  LUNO+3 :    6 A1 0.0000011


Computation Completed


Properties will be evaluated at   0.000000,   0.000000,   0.000000 [a0]

Properties computed using the SCF density matrix

  Nuclear Dipole Moment: [e a0]
     X:     0.0000      Y:     0.0000      Z:     0.8391

  Electronic Dipole Moment: [e a0]
     X:     0.0000      Y:     0.0000      Z:    -0.1519

  Dipole Moment: [e a0]
     X:     0.0000      Y:     0.0000      Z:     0.6872     Total:     0.6872

  Dipole Moment: [D]
     X:     0.0000      Y:     0.0000      Z:     1.7467     Total:     1.7467


*** tstop() called on c4-20.compute.lan at Tue Feb 23 13:21:11 2021
Module time:
	user time   =       0.55 seconds =       0.01 minutes
	system time =       0.05 seconds =       0.00 minutes
	total time  =          0 seconds =       0.00 minutes
Total time:
	user time   =       7.59 seconds =       0.13 minutes
	system time =       0.32 seconds =       0.01 minutes
	total time  =          8 seconds =       0.13 minutes

*** tstart() called on c4-20.compute.lan
*** at Tue Feb 23 13:21:11 2021


         ------------------------------------------------------------
                                   SCF GRAD                          
                          Rob Parrish, Justin Turney,                
                       Andy Simmonett, and Alex Sokolov              
         ------------------------------------------------------------

  ==> Geometry <==

    Molecular point group: c2v
    Full point group: C_inf_v

    Geometry (in Angstrom), charge = 0, multiplicity = 2:

       Center              X                  Y                   Z               Mass       
    ------------   -----------------  -----------------  -----------------  -----------------
         O            0.000000000000     0.000000000000    -0.056412707687    15.994914619570
         H            0.000000000000     0.000000000000     0.895310608546     1.007825032230

  Nuclear repulsion =    4.448160104046867

  ==> Basis Set <==

  Basis Set: AUG-CC-PVTZ
    Blend: AUG-CC-PVTZ
    Number of shells: 23
    Number of basis function: 69
    Number of Cartesian functions: 80
    Spherical Harmonics?: true
    Max angular momentum: 3

  ==> DirectJKGrad: Integral-Direct SCF Gradients <==

    Gradient:                    1
    J tasked:                  Yes
    K tasked:                  Yes
    wK tasked:                  No
    Integrals threads:           1
    Schwarz Cutoff:          0E+00


  -Total Gradient:
     Atom            X                  Y                   Z
    ------   -----------------  -----------------  -----------------
       1        0.000000000000     0.000000000000     0.000000195741
       2        0.000000000000     0.000000000000    -0.000000195741


*** tstop() called on c4-20.compute.lan at Tue Feb 23 13:21:13 2021
Module time:
	user time   =       1.56 seconds =       0.03 minutes
	system time =       0.02 seconds =       0.00 minutes
	total time  =          2 seconds =       0.03 minutes
Total time:
	user time   =       9.15 seconds =       0.15 minutes
	system time =       0.34 seconds =       0.01 minutes
	total time  =         10 seconds =       0.17 minutes

			-----------------------------------------
			 OPTKING 2.0: for geometry optimizations 
			  - R.A. King,  Bethel University        
			-----------------------------------------

	Previous internal coordinate definitions found.
	---Fragment 1 Geometry and Gradient---
	 O           0.0000000000        0.0000000000       -0.1066045675
	 H           0.0000000000        0.0000000000        1.6918918474
	             0.0000000000        0.0000000000        0.0000001957
	             0.0000000000        0.0000000000       -0.0000001957

	---Fragment 1 Intrafragment Coordinates---
	 - Coordinate -           - BOHR/RAD -       - ANG/DEG -
	 R(1,2)           =         1.798496	       0.951723

	Current energy   :       -75.4219668821

	Energy change for the previous step:
		Projected    :        -0.0000000000
		Actual       :        -0.0000000000

	Performing BFGS update.
	Previous computed or guess Hessian on step 1.
	Denominators (dg)(dq) or (dq)(dq) are very small.
	 Skipping Hessian update for step 3.
	Denominators (dg)(dq) or (dq)(dq) are very small.
	 Skipping Hessian update for step 2.
	Steps to be used in Hessian update: 1
	Taking RFO optimization step.
	Going to follow RFO solution 1.
	Using RFO vector 1.
	Norm of target step-size    0.00000
	Projected energy change by RFO approximation:        -0.0000000000

	Back-transformation to cartesian coordinates...
	Successfully converged to displaced geometry.

	--- Internal Coordinate Step in ANG or DEG, aJ/ANG or AJ/DEG ---
	 ---------------------------------------------------------------------------
	   Coordinate                Previous        Force       Change         New 
	   ----------                --------       ------       ------       ------
	    1 R(1,2)          =      0.951723     0.000002     0.000000     0.951723
	 ---------------------------------------------------------------------------
	Successfully symmetrized geometry.

  ==> Convergence Check <==

  Measures of convergence in internal coordinates in au.
  Criteria marked as inactive (o), active & met (*), and active & unmet ( ).
  ---------------------------------------------------------------------------------------------
   Step     Total Energy     Delta E     MAX Force     RMS Force      MAX Disp      RMS Disp   
  ---------------------------------------------------------------------------------------------
    Convergence Criteria             o    2.00e-06 *    1.00e-06 *    6.00e-06 *    4.00e-06 *
  ---------------------------------------------------------------------------------------------
      4     -75.42196688   -2.80e-11 o    1.96e-07 *    1.96e-07 *    3.45e-07 *    3.45e-07 *  ~
  ---------------------------------------------------------------------------------------------


  **** Optimization is complete! (in 4 steps) ****

  ==> Optimization Summary <==

  Measures of convergence in internal coordinates in au.
  --------------------------------------------------------------------------------------------------------------- ~
   Step         Total Energy             Delta E       MAX Force       RMS Force        MAX Disp        RMS Disp  ~
  --------------------------------------------------------------------------------------------------------------- ~
      1     -75.421896866704    -75.421896866704      0.00886994      0.00886994      0.01598546      0.01598546  ~
      2     -75.421966847379     -0.000069980675      0.00020137      0.00020137      0.00035486      0.00035486  ~
      3     -75.421966882087     -0.000000034709      0.00000571      0.00000571      0.00001007      0.00001007  ~
      4     -75.421966882115     -0.000000000028      0.00000020      0.00000020      0.00000035      0.00000035  ~
  --------------------------------------------------------------------------------------------------------------- ~

	Writing optimization data to binary file.
	Final energy is    -75.4219668821154
	Final (previous) structure:
	Cartesian Geometry (in Angstrom)
	    O     0.0000000000   0.0000000000  -0.0564127075
	    H     0.0000000000   0.0000000000   0.8953106050
	Saving final (previous) structure.
			--------------------------
			 OPTKING Finished Execution 
			--------------------------

    Final optimized geometry and variables:
    Molecular point group: c2v
    Full point group: C_inf_v

    Geometry (in Angstrom), charge = 0, multiplicity = 2:

    O       
    H             1          R1

    R1        =    0.9517233162

	Removing binary optimization data file.
	Cleaning optimization helper files.

    Psi4 stopped on: Tuesday, 23 February 2021 01:21PM
    Psi4 wall time for execution: 0:00:09.70

*** Psi4 exiting successfully. Buy a developer a beer!
