
    -----------------------------------------------------------------------
          Psi4: An Open-Source Ab Initio Electronic Structure Package
                               Psi4 1.3.2 release

                         Git: Rev {HEAD} ecbda83 


    R. M. Parrish, L. A. Burns, D. G. A. Smith, A. C. Simmonett,
    A. E. DePrince III, E. G. Hohenstein, U. Bozkaya, A. Yu. Sokolov,
    R. Di Remigio, R. M. Richard, J. F. Gonthier, A. M. James,
    H. R. McAlexander, A. Kumar, M. Saitow, X. Wang, B. P. Pritchard,
    P. Verma, H. F. Schaefer III, K. Patkowski, R. A. King, E. F. Valeev,
    F. A. Evangelista, J. M. Turney, T. D. Crawford, and C. D. Sherrill,
    J. Chem. Theory Comput. 13(7) pp 3185--3197 (2017).
    (doi: 10.1021/acs.jctc.7b00174)


                         Additional Contributions by
    P. Kraus, H. Kruse, M. H. Lechner, M. C. Schieber, R. A. Shaw,
    A. Alenaizan, R. Galvelis, Z. L. Glick, S. Lehtola, and J. P. Misiewicz

    -----------------------------------------------------------------------


    Psi4 started on: Monday, 08 March 2021 04:54PM

    Process ID: 127766
    Host:       c2-20.compute.lan
    PSIDATADIR: /apps/gb/PSI4/1.3.2/share/psi4
    Memory:     500.0 MiB
    Threads:    12
    
  ==> Input File <==

--------------------------------------------------------------------------
memory 4 GB

molecule  {
0 3
O    0.000000000000    0.000000000000    1.252057248837
H    0.000000000000   -0.758665699200    1.843783008411
H   -0.000000000000    0.758665699200    1.843783008411
O    0.000000000000    0.000000000000   -1.484407431889
}
set {
basis aug-cc-pvtz
reference uhf
e_convergence 10
scf_type pk
freeze_core true
}

set ccenergy {
e_convergence 10
r_convergence 10
}

e = energy('ccsd(t)')

print_out('Stephenergy {}'.format(e))

--------------------------------------------------------------------------

  Memory set to   3.725 GiB by Python driver.

*** tstart() called on c2-20.compute.lan
*** at Mon Mar  8 16:54:55 2021

   => Loading Basis Set <=

    Name: AUG-CC-PVTZ
    Role: ORBITAL
    Keyword: BASIS
    atoms 1, 4 entry O          line   327 file /apps/gb/PSI4/1.3.2/share/psi4/basis/aug-cc-pvtz.gbs 
    atoms 2-3  entry H          line    36 file /apps/gb/PSI4/1.3.2/share/psi4/basis/aug-cc-pvtz.gbs 


         ---------------------------------------------------------
                                   SCF
               by Justin Turney, Rob Parrish, Andy Simmonett
                          and Daniel G. A. Smith
                              UHF Reference
                       12 Threads,   3814 MiB Core
         ---------------------------------------------------------

  ==> Geometry <==

    Molecular point group: c2v
    Full point group: C2v

    Geometry (in Angstrom), charge = 0, multiplicity = 3:

       Center              X                  Y                   Z               Mass       
    ------------   -----------------  -----------------  -----------------  -----------------
         O            0.000000000000     0.000000000000     1.252057248837    15.994914619570
         H            0.000000000000    -0.758665699200     1.843783008411     1.007825032230
         H           -0.000000000000     0.758665699200     1.843783008411     1.007825032230
         O            0.000000000000     0.000000000000    -1.484407431889    15.994914619570

  Running in c2v symmetry.

  Rotational constants: A =     14.53050  B =      0.25097  C =      0.24671 [cm^-1]
  Rotational constants: A = 435613.33328  B =   7523.77887  C =   7396.03681 [MHz]
  Nuclear repulsion =   24.005422630912431

  Charge       = 0
  Multiplicity = 3
  Electrons    = 18
  Nalpha       = 10
  Nbeta        = 8

  ==> Algorithm <==

  SCF Algorithm Type is PK.
  DIIS enabled.
  MOM disabled.
  Fractional occupation disabled.
  Guess Type is SAD.
  Energy threshold   = 1.00e-10
  Density threshold  = 1.00e-08
  Integral threshold = 0.00e+00

  ==> Primary Basis <==

  Basis Set: AUG-CC-PVTZ
    Blend: AUG-CC-PVTZ
    Number of shells: 46
    Number of basis function: 138
    Number of Cartesian functions: 160
    Spherical Harmonics?: true
    Max angular momentum: 3

  ==> Pre-Iterations <==

   -------------------------------------------------------
    Irrep   Nso     Nmo     Nalpha   Nbeta   Ndocc  Nsocc
   -------------------------------------------------------
     A1        54      54       0       0       0       0
     A2        17      17       0       0       0       0
     B1        29      29       0       0       0       0
     B2        38      38       0       0       0       0
   -------------------------------------------------------
    Total     138     138      10       8       8       2
   -------------------------------------------------------

  ==> Integral Setup <==

  Using in-core PK algorithm.
   Calculation information:
      Number of atoms:                   4
      Number of AO shells:              46
      Number of primitives:             82
      Number of atomic orbitals:       160
      Number of basis functions:       138

      Integral cutoff                 1.00e-12
      Number of threads:                12

  Performing in-core PK
  Using 91996872 doubles for integral storage.
  We computed 913017 shell quartets total.
  Whereas there are 584821 unique shell quartets.
    56.12 percent of shell quartets recomputed by reordering.

  ==> DiskJK: Disk-Based J/K Matrices <==

    J tasked:                  Yes
    K tasked:                  Yes
    wK tasked:                  No
    Memory [MiB]:             2861
    Schwarz Cutoff:          1E-12

    OpenMP threads:             12

  Minimum eigenvalue in the overlap matrix is 3.2103227520E-04.
  Using Symmetric Orthogonalization.

  SCF Guess: Superposition of Atomic Densities via on-the-fly atomic UHF.

  ==> Iterations <==

                        Total Energy        Delta E     RMS |[F,P]|

   @UHF iter SAD:  -149.38234617484704   -1.49382e+02   0.00000e+00 
   @UHF iter   1:  -150.76947462769431   -1.38713e+00   6.68032e-03 DIIS
   @UHF iter   2:  -150.84057386759667   -7.10992e-02   4.24050e-03 DIIS
   @UHF iter   3:  -150.87173550384091   -3.11616e-02   5.63941e-04 DIIS
   @UHF iter   4:  -150.87315233793200   -1.41683e-03   1.70549e-04 DIIS
   @UHF iter   5:  -150.87328723976881   -1.34902e-04   6.96235e-05 DIIS
   @UHF iter   6:  -150.87332014270365   -3.29029e-05   2.09333e-05 DIIS
   @UHF iter   7:  -150.87332326027325   -3.11757e-06   5.41638e-06 DIIS
   @UHF iter   8:  -150.87332348910053   -2.28827e-07   1.54423e-06 DIIS
   @UHF iter   9:  -150.87332350744742   -1.83469e-08   4.08376e-07 DIIS
   @UHF iter  10:  -150.87332350883466   -1.38724e-09   1.99311e-07 DIIS
   @UHF iter  11:  -150.87332350927801   -4.43350e-10   7.38016e-08 DIIS
   @UHF iter  12:  -150.87332350933752   -5.95151e-11   1.56411e-08 DIIS
   @UHF iter  13:  -150.87332350933968   -2.16005e-12   4.56230e-09 DIIS
  Energy and wave function converged.


  ==> Post-Iterations <==

   @Spin Contamination Metric:   9.554669267E-03
   @S^2 Expected:                2.000000000E+00
   @S^2 Observed:                2.009554669E+00
   @S   Expected:                1.000000000E+00
   @S   Observed:                1.000000000E+00

    Orbital Energies [Eh]
    ---------------------

    Alpha Occupied:                                                       

       1A1   -20.683753     2A1   -20.571532     3A1    -1.393322  
       4A1    -1.355396     1B2    -0.718001     5A1    -0.688084  
       1B1    -0.684558     6A1    -0.586659     2B2    -0.585564  
       2B1    -0.514207  

    Alpha Virtual:                                                        

       7A1     0.029531     3B2     0.047678     8A1     0.118119  
       3B1     0.154398     9A1     0.159351     4B2     0.180258  
       5B2     0.187500     4B1     0.192924    10A1     0.198365  
       1A2     0.263753     6B2     0.264508    11A1     0.265939  
      12A1     0.314351     5B1     0.326971    13A1     0.375883  
       7B2     0.380534    14A1     0.449873     8B2     0.464141  
       9B2     0.599979     6B1     0.644677    15A1     0.648164  
       2A2     0.658259    16A1     0.667245    17A1     0.701435  
       3A2     0.722117    10B2     0.725370     7B1     0.769516  
      18A1     0.792376    19A1     0.821244     8B1     0.837918  
      20A1     0.860562     9B1     0.901263    11B2     0.918336  
       4A2     0.925289    12B2     0.947326    13B2     0.982687  
      21A1     0.991889    10B1     1.017551    22A1     1.046925  
      14B2     1.051679    11B1     1.124534     5A2     1.177139  
      23A1     1.192500    15B2     1.202553    16B2     1.332395  
      24A1     1.335216    25A1     1.457324     6A2     1.506954  
      12B1     1.594749    26A1     1.669536    27A1     1.813071  
      17B2     1.824568    18B2     1.974732    28A1     2.041270  
      13B1     2.048839    19B2     2.054730     7A2     2.059253  
      14B1     2.059497    29A1     2.079550    30A1     2.115254  
       8A2     2.119959    20B2     2.140027    31A1     2.142452  
      15B1     2.150199    32A1     2.254459    21B2     2.277390  
      16B1     2.302117     9A2     2.311310    17B1     2.441377  
      33A1     2.478033    22B2     2.482949    34A1     2.497263  
      35A1     2.698277    18B1     2.717451    23B2     2.721407  
      36A1     2.849509    24B2     2.858195    10A2     2.879693  
      25B2     3.693951    37A1     3.750133    11A2     4.013994  
      19B1     4.078621    20B1     4.100601    38A1     4.140860  
      26B2     4.185745    27B2     4.284399    21B1     4.285962  
      39A1     4.359296    12A2     4.382213    40A1     4.427449  
      22B1     4.455936    28B2     4.516672    41A1     4.796335  
      29B2     4.840116    13A2     5.141602    30B2     5.143767  
      31B2     5.243735    42A1     5.338516    23B1     5.515449  
      43A1     5.683418    44A1     6.202176    24B1     6.391792  
      14A2     6.411659    45A1     6.412643    32B2     6.424808  
      25B1     6.436529    33B2     6.494544    46A1     6.546662  
      34B2     6.580487    26B1     6.720460    27B1     6.904970  
      47A1     6.909554    15A2     6.925466    48A1     6.949932  
      35B2     6.988133    49A1     7.046891    28B1     7.133418  
      29B1     7.279578    36B2     7.301827    16A2     7.305408  
      17A2     7.351481    50A1     7.439810    51A1     7.541088  
      52A1     7.904483    37B2     7.916023    38B2     8.805272  
      53A1     8.899765    54A1    15.758280  

    Beta Occupied:                                                        

       1A1   -20.604862     2A1   -20.571011     3A1    -1.354652  
       4A1    -1.050472     1B2    -0.717628     5A1    -0.588794  
       1B1    -0.513462     2B2    -0.494954  

    Beta Virtual:                                                         

       6A1     0.029370     3B2     0.047761     2B1     0.087033  
       7A1     0.092162     8A1     0.141489     9A1     0.166978  
       3B1     0.170878     4B2     0.180860     5B2     0.191140  
      10A1     0.225807     4B1     0.253658     1A2     0.263755  
       6B2     0.264940    11A1     0.288969    12A1     0.316729  
       5B1     0.328241     7B2     0.380703    13A1     0.386631  
      14A1     0.450965     8B2     0.464357     9B2     0.601648  
      15A1     0.660553     6B1     0.668514     2A2     0.672577  
      16A1     0.674109    17A1     0.718719     3A2     0.722638  
      10B2     0.737516     7B1     0.781185    18A1     0.807163  
       8B1     0.847122    19A1     0.852334     4A2     0.925720  
      20A1     0.928241    11B2     0.936452    12B2     0.953837  
      13B2     0.986588     9B1     0.988138    21A1     0.999015  
      14B2     1.052835    22A1     1.053609    10B1     1.062166  
      11B1     1.142065     5A2     1.177349    23A1     1.193951  
      15B2     1.205252    16B2     1.334871    24A1     1.391770  
      25A1     1.494243     6A2     1.507409    12B1     1.596759  
      26A1     1.701185    27A1     1.818596    17B2     1.824906  
      18B2     1.976238    28A1     2.070688    13B1     2.071400  
      19B2     2.072118     7A2     2.083980    29A1     2.099654  
      14B1     2.102157    30A1     2.155057    20B2     2.187926  
       8A2     2.203046    31A1     2.210340    15B1     2.262328  
       9A2     2.311442    32A1     2.314105    16B1     2.316916  
      21B2     2.327058    17B1     2.450284    33A1     2.483872  
      22B2     2.485785    34A1     2.531787    35A1     2.704962  
      18B1     2.719315    23B2     2.722334    24B2     2.858315  
      36A1     2.862470    10A2     2.879732    25B2     3.694913  
      37A1     3.750271    11A2     4.014027    19B1     4.080948  
      38A1     4.172041    26B2     4.220867    20B1     4.259026  
      21B1     4.292276    27B2     4.295670    12A2     4.382331  
      39A1     4.423026    22B1     4.461438    40A1     4.478872  
      28B2     4.516767    41A1     4.808074    29B2     4.840293  
      13A2     5.141688    30B2     5.143966    31B2     5.244243  
      42A1     5.339184    23B1     5.515576    43A1     5.688545  
      44A1     6.203747    24B1     6.486493    14A2     6.488483  
      32B2     6.488497    45A1     6.495571    25B1     6.500831  
      33B2     6.528023    34B2     6.611007    46A1     6.618280  
      26B1     6.728710    47A1     6.970243    15A2     7.039011  
      48A1     7.043115    27B1     7.087436    35B2     7.099954  
      28B1     7.133927    49A1     7.173284    29B1     7.283725  
      36B2     7.302044    16A2     7.305705    17A2     7.351950  
      50A1     7.442700    51A1     7.542235    52A1     7.905146  
      37B2     7.916415    38B2     8.805684    53A1     8.978740  
      54A1    15.758641  

    Final Occupation by Irrep:
             A1    A2    B1    B2 
    DOCC [     5,    0,    1,    2 ]
    SOCC [     1,    0,    1,    0 ]

  @UHF Final Energy:  -150.87332350933968

   => Energetics <=

    Nuclear Repulsion Energy =             24.0054226309124310
    One-Electron Energy =                -256.0805818089103809
    Two-Electron Energy =                  81.2018356686582763
    Total Energy =                       -150.8733235093396843

  UHF NO Occupations:
  HONO-2 :    5 A1 1.9970475
  HONO-1 :    6 A1 1.0000000
  HONO-0 :    2 B1 1.0000000
  LUNO+0 :    7 A1 0.0029525
  LUNO+1 :    3 B2 0.0018009
  LUNO+2 :    8 A1 0.0000255
  LUNO+3 :    9 A1 0.0000024


Computation Completed


Properties will be evaluated at   0.000000,   0.000000,   0.000000 [a0]

Properties computed using the SCF density matrix

  Nuclear Dipole Moment: [e a0]
     X:     0.0000      Y:     0.0000      Z:     3.4559

  Electronic Dipole Moment: [e a0]
     X:     0.0000      Y:     0.0000      Z:    -2.6150

  Dipole Moment: [e a0]
     X:     0.0000      Y:     0.0000      Z:     0.8409     Total:     0.8409

  Dipole Moment: [D]
     X:     0.0000      Y:     0.0000      Z:     2.1372     Total:     2.1372


*** tstop() called on c2-20.compute.lan at Mon Mar  8 16:55:00 2021
Module time:
	user time   =      42.71 seconds =       0.71 minutes
	system time =       2.39 seconds =       0.04 minutes
	total time  =          5 seconds =       0.08 minutes
Total time:
	user time   =      42.71 seconds =       0.71 minutes
	system time =       2.39 seconds =       0.04 minutes
	total time  =          5 seconds =       0.08 minutes
 MINTS: Wrapper to libmints.
   by Justin Turney

   Calculation information:
      Number of threads:                12
      Number of atoms:                   4
      Number of AO shells:              46
      Number of SO shells:              37
      Number of primitives:             82
      Number of atomic orbitals:       160
      Number of basis functions:       138

      Number of irreps:                  4
      Integral cutoff                 0.00e+00
      Number of functions per irrep: [  54   17   29   38 ]

 OEINTS: Overlap, kinetic, potential, dipole, and quadrupole integrals
         stored in file 35.

      Computing two-electron integrals...done
      Computed 11336347 non-zero two-electron integrals.
        Stored in file 33.


*** tstart() called on c2-20.compute.lan
*** at Mon Mar  8 16:55:03 2021


	Wfn Parameters:
	--------------------
	Wavefunction         = CCSD_T
	Number of irreps     = 4
	Number of MOs        = 138
	Number of active MOs = 136
	AO-Basis             = NONE
	Semicanonical        = false
	Reference            = UHF
	Print Level          = 1

	IRREP	# MOs	# FZDC	# DOCC	# SOCC	# VIRT	# FZVR
	-----	-----	------	------	------	------	------
	 A1	   54	    2	    3	    1	    48	    0
	 A2	   17	    0	    0	    0	    17	    0
	 B1	   29	    0	    1	    1	    27	    0
	 B2	   38	    0	    2	    0	    36	    0
	Transforming integrals...
	IWL integrals will be deleted.
	(OO|OO)...
	Presorting SO-basis two-electron integrals.
	Sorting File: SO Ints (nn|nn) nbuckets = 1
	Transforming the one-electron integrals and constructing Fock matrices
	Starting AA/AB first half-transformation.
	Sorting AA/AB half-transformed integrals.
	Starting BB first half-transformation.
	Sorting BB half-transformed integrals.
	First half integral transformation complete.
	Starting AA second half-transformation.
	Starting AB second half-transformation.
	Starting BB second half-transformation.
	Two-electron integral transformation complete.
	(OO|OV)...
	Starting AA second half-transformation.
	Starting AB second half-transformation.
	Starting BB second half-transformation.
	Two-electron integral transformation complete.
	(OO|VV)...
	Starting AA second half-transformation.
	Starting AB second half-transformation.
	Starting BB second half-transformation.
	Two-electron integral transformation complete.
	(OV|OO)...
	Starting AA/AB first half-transformation.
	Sorting AA/AB half-transformed integrals.
	Starting BB first half-transformation.
	Sorting BB half-transformed integrals.
	First half integral transformation complete.
	Starting AA second half-transformation.
	Starting AB second half-transformation.
	Starting BB second half-transformation.
	Two-electron integral transformation complete.
	(OV|OV)...
	Starting AA second half-transformation.
	Starting AB second half-transformation.
	Starting BB second half-transformation.
	Two-electron integral transformation complete.
	(OV|VV)...
	Starting AA second half-transformation.
	Starting AB second half-transformation.
	Starting BB second half-transformation.
	Two-electron integral transformation complete.
	(VV|OO)...
	Starting AA/AB first half-transformation.
	Sorting AA/AB half-transformed integrals.
	Starting BB first half-transformation.
	Sorting BB half-transformed integrals.
	First half integral transformation complete.
	Starting AA second half-transformation.
	Starting AB second half-transformation.
	Starting BB second half-transformation.
	Two-electron integral transformation complete.
	(VV|OV)...
	Starting AA second half-transformation.
	Starting AB second half-transformation.
	Starting BB second half-transformation.
	Two-electron integral transformation complete.
	(VV|VV)...
	Starting AA second half-transformation.
	Starting AB second half-transformation.
	Starting BB second half-transformation.
	Two-electron integral transformation complete.
	Frozen core energy     =   -126.44548936587420

	Size of irrep 0 of <AB|CD> integrals:      5.040 (MW) /     40.320 (MB)
	Size of irrep 1 of <AB|CD> integrals:      3.197 (MW) /     25.576 (MB)
	Size of irrep 2 of <AB|CD> integrals:      3.640 (MW) /     29.124 (MB)
	Size of irrep 3 of <AB|CD> integrals:      4.783 (MW) /     38.264 (MB)
	Total:                                    16.660 (MW) /    133.283 (MB)

	Size of irrep 0 of <ab|cd> integrals:      5.382 (MW) /     43.059 (MB)
	Size of irrep 1 of <ab|cd> integrals:      3.389 (MW) /     27.114 (MB)
	Size of irrep 2 of <ab|cd> integrals:      3.936 (MW) /     31.490 (MB)
	Size of irrep 3 of <ab|cd> integrals:      5.018 (MW) /     40.141 (MB)
	Total:                                    17.726 (MW) /    141.804 (MB)

	Size of irrep 0 of <Ab|Cd> integrals:     22.024 (MW) /    176.194 (MB)
	Size of irrep 1 of <Ab|Cd> integrals:     13.170 (MW) /    105.357 (MB)
	Size of irrep 2 of <Ab|Cd> integrals:     15.140 (MW) /    121.119 (MB)
	Size of irrep 3 of <Ab|Cd> integrals:     19.598 (MW) /    156.787 (MB)
	Total:                                    69.932 (MW) /    559.457 (MB)

	Size of irrep 0 of <IA|BC> integrals:      1.469 (MW) /     11.748 (MB)
	Size of irrep 1 of <IA|BC> integrals:      0.694 (MW) /      5.550 (MB)
	Size of irrep 2 of <IA|BC> integrals:      0.908 (MW) /      7.266 (MB)
	Size of irrep 3 of <IA|BC> integrals:      1.198 (MW) /      9.588 (MB)
	Total:                                     4.269 (MW) /     34.152 (MB)

	Size of irrep 0 of <ia|bc> integrals:      1.178 (MW) /      9.426 (MB)
	Size of irrep 1 of <ia|bc> integrals:      0.527 (MW) /      4.212 (MB)
	Size of irrep 2 of <ia|bc> integrals:      0.663 (MW) /      5.301 (MB)
	Size of irrep 3 of <ia|bc> integrals:      0.999 (MW) /      7.992 (MB)
	Total:                                     3.366 (MW) /     26.931 (MB)

	Size of irrep 0 of <Ia|Bc> integrals:      1.521 (MW) /     12.164 (MB)
	Size of irrep 1 of <Ia|Bc> integrals:      0.711 (MW) /      5.690 (MB)
	Size of irrep 2 of <Ia|Bc> integrals:      0.949 (MW) /      7.595 (MB)
	Size of irrep 3 of <Ia|Bc> integrals:      1.222 (MW) /      9.775 (MB)
	Total:                                     4.403 (MW) /     35.225 (MB)

	Size of irrep 0 of <iA|bC> integrals:      1.140 (MW) /      9.123 (MB)
	Size of irrep 1 of <iA|bC> integrals:      0.512 (MW) /      4.094 (MB)
	Size of irrep 2 of <iA|bC> integrals:      0.634 (MW) /      5.074 (MB)
	Size of irrep 3 of <iA|bC> integrals:      0.978 (MW) /      7.827 (MB)
	Total:                                     3.265 (MW) /     26.118 (MB)

	Size of irrep 0 of tIjAb amplitudes:       0.084 (MW) /      0.676 (MB)
	Size of irrep 1 of tIjAb amplitudes:       0.022 (MW) /      0.174 (MB)
	Size of irrep 2 of tIjAb amplitudes:       0.039 (MW) /      0.311 (MB)
	Size of irrep 3 of tIjAb amplitudes:       0.062 (MW) /      0.496 (MB)
	Total:                                     0.207 (MW) /      1.657 (MB)

	Nuclear Rep. energy          =     24.00542263091243
	SCF energy                   =   -150.87332350933968
	One-electron energy          =    -85.62076159453949
	Two-electron (AA) energy     =     10.40081591054684
	Two-electron (BB) energy     =      5.48407589632439
	Two-electron (AB) energy     =     21.30261301328820
	Two-electron energy          =     37.18750482015943
	Reference energy             =   -150.87332350934184

*** tstop() called on c2-20.compute.lan at Mon Mar  8 16:55:46 2021
Module time:
	user time   =     350.04 seconds =       5.83 minutes
	system time =      22.62 seconds =       0.38 minutes
	total time  =         43 seconds =       0.72 minutes
Total time:
	user time   =     398.28 seconds =       6.64 minutes
	system time =      25.49 seconds =       0.42 minutes
	total time  =         51 seconds =       0.85 minutes
            **************************
            *                        *
            *        CCENERGY        *
            *                        *
            **************************

    Nuclear Rep. energy (wfn)     =   24.005422630912431
    SCF energy          (wfn)     = -150.873323509339684
    Reference energy    (file100) = -150.873323509341844

    Input parameters:
    -----------------
    Wave function   =     CCSD_T
    Reference wfn   =     UHF
    Brueckner       =     No
    Memory (Mbytes) =     4000.0
    Maxiter         =     50
    R_Convergence   =     1.0e-10
    E_Convergence   =     1.0e-10
    Restart         =     Yes
    DIIS            =     Yes
    AO Basis        =     NONE
    ABCD            =     NEW
    Cache Level     =     2
    Cache Type      =     LRU
    Print Level     =     1
    Num. of threads =     12
    # Amps to Print =     10
    Print MP2 Amps? =     No
    Analyze T2 Amps =     No
    Print Pair Ener =     No
    Local CC        =     No
    SCS-MP2         =     False
    SCSN-MP2        =     False
    SCS-CCSD        =     False

MP2 correlation energy -0.4164471313156995
                Solving CC Amplitude Equations
                ------------------------------
  Iter             Energy              RMS        T1Diag      D1Diag    New D1Diag    D2Diag
  ----     ---------------------    ---------   ----------  ----------  ----------   --------
     0        -0.416447131315699    0.000e+00    0.000000    0.000000    0.000000    0.000000
     1        -0.427200296450656    5.711e-02    0.010619    0.000000    0.000000    0.000000
     2        -0.435311267052654    1.707e-02    0.011118    0.000000    0.000000    0.000000
     3        -0.437470327940995    8.831e-03    0.013059    0.000000    0.000000    0.000000
     4        -0.437343217079039    2.706e-03    0.013478    0.000000    0.000000    0.000000
     5        -0.437333797071833    1.413e-03    0.013680    0.000000    0.000000    0.000000
     6        -0.437363217804638    5.332e-04    0.013709    0.000000    0.000000    0.000000
     7        -0.437366203873386    2.168e-04    0.013704    0.000000    0.000000    0.000000
     8        -0.437367125625633    6.695e-05    0.013699    0.000000    0.000000    0.000000
     9        -0.437367816437218    2.416e-05    0.013699    0.000000    0.000000    0.000000
    10        -0.437366905415390    9.257e-06    0.013698    0.000000    0.000000    0.000000
    11        -0.437367072392014    4.098e-06    0.013698    0.000000    0.000000    0.000000
    12        -0.437367033089325    1.507e-06    0.013698    0.000000    0.000000    0.000000
    13        -0.437367041903073    7.640e-07    0.013698    0.000000    0.000000    0.000000
    14        -0.437367065738264    3.228e-07    0.013698    0.000000    0.000000    0.000000
    15        -0.437367067227596    1.158e-07    0.013698    0.000000    0.000000    0.000000
    16        -0.437367067906175    5.373e-08    0.013698    0.000000    0.000000    0.000000
    17        -0.437367068442583    2.034e-08    0.013698    0.000000    0.000000    0.000000
    18        -0.437367068268177    1.113e-08    0.013698    0.000000    0.000000    0.000000
    19        -0.437367068018052    4.253e-09    0.013698    0.000000    0.000000    0.000000
    20        -0.437367068002653    2.262e-09    0.013698    0.000000    0.000000    0.000000
    21        -0.437367067978760    8.544e-10    0.013698    0.000000    0.000000    0.000000
    22        -0.437367067977839    3.388e-10    0.013698    0.000000    0.000000    0.000000
    23        -0.437367067977485    1.771e-10    0.013698    0.000000    0.000000    0.000000
    24        -0.437367067977275    7.267e-11    0.013698    0.000000    0.000000    0.000000

    Iterations converged.


    Largest TIA Amplitudes:
              5  65        -0.0134211520
              5  67        -0.0111625795
              7  94         0.0105493537
              5  66        -0.0096603915
              3   1         0.0075165766
              4  65        -0.0075023313
              2   3         0.0072160530
              4  66         0.0071786199
              3   5        -0.0055430821
              3   6         0.0054651525

    Largest Tia Amplitudes:
              3  67        -0.0147791033
              2   2         0.0138374406
              3  69        -0.0107601359
              3  66        -0.0080370729
              5  96         0.0080300630
              2   1        -0.0070682836
              2   7         0.0057517839
              2   6        -0.0055009858
              1  25        -0.0053988802
              4 109         0.0053932628

    Largest TIJAB Amplitudes:
      7   4 100  71         0.0141715743
      7   4  55  23        -0.0135699765
      7   2 100  12        -0.0119330893
      4   2  71  12         0.0107910487
      6   5  50   9        -0.0085839786
      7   4  49  23         0.0082446393
      6   5  97  72        -0.0081350281
      7   4  94  71         0.0079053271
      7   4  55   8        -0.0076799654
      7   4 100  82        -0.0074032931

    Largest Tijab Amplitudes:
      5   1  66  56         0.0086580672
      5   1  66  50        -0.0085336723
      5   1  68  56         0.0081661781
      4   3  99  67        -0.0076503840
      5   1  68  50        -0.0074431269
      4   2  99   2         0.0072497744
      4   3  99  73        -0.0072012959
      4   2  99  12         0.0069671988
      4   2 100   9        -0.0067545706
      4   3  51  10        -0.0064582888

    Largest TIjAb Amplitudes:
      6   4  97  99        -0.0219109788
      7   5 100 103        -0.0209890471
      7   5 100 102         0.0196729517
      7   1  55  66        -0.0180013611
      7   5 100  96        -0.0171252010
      7   1  55  68        -0.0168287817
      4   1  23  66        -0.0165133260
      5   3  72  73        -0.0161031806
      4   1  23  68        -0.0153881649
      7   5  55  56        -0.0145239250

    SCF energy       (wfn)                    = -150.873323509339684
    Reference energy (file100)                = -150.873323509341844

    Opposite-spin MP2 correlation energy      =   -0.314542005831768
    Same-spin MP2 correlation energy          =   -0.101905125483931
    MP2 correlation energy                    =   -0.416447131315699
      * MP2 total energy                      = -151.289770640657537

    Opposite-spin CCSD correlation energy     =   -0.342202231080814
    Same-spin CCSD correlation energy         =   -0.095164836896461
    CCSD correlation energy                   =   -0.437367067977275
      * CCSD total energy                     = -151.310690577319122

            **************************
            *                        *
            *        CCTRIPLES       *
            *                        *
            **************************


    Wave function   =    CCSD_T
    Reference wfn   =      UHF

    Nuclear Rep. energy (wfn)                =   24.005422630912431
    SCF energy          (wfn)                = -150.873323509339684
    Reference energy    (file100)            = -150.873323509341844
    CCSD energy         (file100)            =   -0.437367067977275
    Total CCSD energy   (file100)            = -151.310690577319122

    Number of ijk index combinations:
    Spin Case AAA:                                  56
    Spin Case BBB:                                  20
    Spin Case AAB:                                 168
    Spin Case ABB:                                 120
    AAA (T) energy                             =   -0.000396530025607
    BBB (T) energy                             =   -0.000203080042980
    AAB (T) energy                             =   -0.006720507436653
    ABB (T) energy                             =   -0.004996499388590
    (T) energy                                   =   -0.012316616893830
      * CCSD(T) total energy                     = -151.323007194212948

Stephenergy -151.32300719421295
    Psi4 stopped on: Monday, 08 March 2021 04:56PM
    Psi4 wall time for execution: 0:01:50.26

*** Psi4 exiting successfully. Buy a developer a beer!
