
    -----------------------------------------------------------------------
          Psi4: An Open-Source Ab Initio Electronic Structure Package
                               Psi4 1.3.2 release

                         Git: Rev {HEAD} ecbda83 


    R. M. Parrish, L. A. Burns, D. G. A. Smith, A. C. Simmonett,
    A. E. DePrince III, E. G. Hohenstein, U. Bozkaya, A. Yu. Sokolov,
    R. Di Remigio, R. M. Richard, J. F. Gonthier, A. M. James,
    H. R. McAlexander, A. Kumar, M. Saitow, X. Wang, B. P. Pritchard,
    P. Verma, H. F. Schaefer III, K. Patkowski, R. A. King, E. F. Valeev,
    F. A. Evangelista, J. M. Turney, T. D. Crawford, and C. D. Sherrill,
    J. Chem. Theory Comput. 13(7) pp 3185--3197 (2017).
    (doi: 10.1021/acs.jctc.7b00174)


                         Additional Contributions by
    P. Kraus, H. Kruse, M. H. Lechner, M. C. Schieber, R. A. Shaw,
    A. Alenaizan, R. Galvelis, Z. L. Glick, S. Lehtola, and J. P. Misiewicz

    -----------------------------------------------------------------------


    Psi4 started on: Monday, 08 March 2021 09:44AM

    Process ID: 77625
    Host:       c5-18.compute.lan
    PSIDATADIR: /apps/gb/PSI4/1.3.2/share/psi4
    Memory:     500.0 MiB
    Threads:    12
    
  ==> Input File <==

--------------------------------------------------------------------------
memory 4 GB

molecule  {
0 1
O    0.000000000000    0.000000000000   -0.066128900336
H    0.000000000000   -0.760547860832    0.524756818364
H   -0.000000000000    0.760547860832    0.524756818364
}
set {
basis aug-cc-pvtz
reference uhf
e_convergence 10
scf_type pk
freeze_core true
}

set ccenergy {
e_convergence 10
r_convergence 10
}

e = energy('ccsd(t)')

print_out('Stephenergy {}'.format(e))

--------------------------------------------------------------------------

  Memory set to   3.725 GiB by Python driver.

*** tstart() called on c5-18.compute.lan
*** at Mon Mar  8 09:44:18 2021

   => Loading Basis Set <=

    Name: AUG-CC-PVTZ
    Role: ORBITAL
    Keyword: BASIS
    atoms 1   entry O          line   327 file /apps/gb/PSI4/1.3.2/share/psi4/basis/aug-cc-pvtz.gbs 
    atoms 2-3 entry H          line    36 file /apps/gb/PSI4/1.3.2/share/psi4/basis/aug-cc-pvtz.gbs 


         ---------------------------------------------------------
                                   SCF
               by Justin Turney, Rob Parrish, Andy Simmonett
                          and Daniel G. A. Smith
                              UHF Reference
                       12 Threads,   3814 MiB Core
         ---------------------------------------------------------

  ==> Geometry <==

    Molecular point group: c2v
    Full point group: C2v

    Geometry (in Angstrom), charge = 0, multiplicity = 1:

       Center              X                  Y                   Z               Mass       
    ------------   -----------------  -----------------  -----------------  -----------------
         O            0.000000000000     0.000000000000    -0.066128900336    15.994914619570
         H            0.000000000000    -0.760547860832     0.524756818364     1.007825032230
         H           -0.000000000000     0.760547860832     0.524756818364     1.007825032230

  Running in c2v symmetry.

  Rotational constants: A =     26.97241  B =     14.45867  C =      9.41286 [cm^-1]
  Rotational constants: A = 808612.55248  B = 433459.93774  C = 282190.57214 [MHz]
  Nuclear repulsion =    9.139041622980770

  Charge       = 0
  Multiplicity = 1
  Electrons    = 10
  Nalpha       = 5
  Nbeta        = 5

  ==> Algorithm <==

  SCF Algorithm Type is PK.
  DIIS enabled.
  MOM disabled.
  Fractional occupation disabled.
  Guess Type is SAD.
  Energy threshold   = 1.00e-10
  Density threshold  = 1.00e-08
  Integral threshold = 0.00e+00

  ==> Primary Basis <==

  Basis Set: AUG-CC-PVTZ
    Blend: AUG-CC-PVTZ
    Number of shells: 32
    Number of basis function: 92
    Number of Cartesian functions: 105
    Spherical Harmonics?: true
    Max angular momentum: 3

  ==> Pre-Iterations <==

   -------------------------------------------------------
    Irrep   Nso     Nmo     Nalpha   Nbeta   Ndocc  Nsocc
   -------------------------------------------------------
     A1        35      35       0       0       0       0
     A2        12      12       0       0       0       0
     B1        18      18       0       0       0       0
     B2        27      27       0       0       0       0
   -------------------------------------------------------
    Total      92      92       5       5       5       0
   -------------------------------------------------------

  ==> Integral Setup <==

  Using in-core PK algorithm.
   Calculation information:
      Number of atoms:                   3
      Number of AO shells:              32
      Number of primitives:             52
      Number of atomic orbitals:       105
      Number of basis functions:        92

      Integral cutoff                 1.00e-12
      Number of threads:                12

  Performing in-core PK
  Using 18305562 doubles for integral storage.
  We computed 240258 shell quartets total.
  Whereas there are 139656 unique shell quartets.
    72.04 percent of shell quartets recomputed by reordering.

  ==> DiskJK: Disk-Based J/K Matrices <==

    J tasked:                  Yes
    K tasked:                  Yes
    wK tasked:                  No
    Memory [MiB]:             2861
    Schwarz Cutoff:          1E-12

    OpenMP threads:             12

  Minimum eigenvalue in the overlap matrix is 3.9000496437E-04.
  Using Symmetric Orthogonalization.

  SCF Guess: Superposition of Atomic Densities via on-the-fly atomic UHF.

  ==> Iterations <==

                        Total Energy        Delta E     RMS |[F,P]|

   @UHF iter SAD:   -75.47149873698920   -7.54715e+01   0.00000e+00 
   @UHF iter   1:   -75.97564726635153   -5.04149e-01   9.51230e-03 DIIS
   @UHF iter   2:   -76.02801789604442   -5.23706e-02   6.51068e-03 DIIS
   @UHF iter   3:   -76.05972976267233   -3.17119e-02   4.42485e-04 DIIS
   @UHF iter   4:   -76.06012353066797   -3.93768e-04   1.06763e-04 DIIS
   @UHF iter   5:   -76.06014857637211   -2.50457e-05   2.43085e-05 DIIS
   @UHF iter   6:   -76.06015063493777   -2.05857e-06   5.32838e-06 DIIS
   @UHF iter   7:   -76.06015074354838   -1.08611e-07   9.58524e-07 DIIS
   @UHF iter   8:   -76.06015074663250   -3.08412e-09   1.61387e-07 DIIS
   @UHF iter   9:   -76.06015074670120   -6.86953e-11   3.99298e-08 DIIS
   @UHF iter  10:   -76.06015074670530   -4.10694e-12   5.83515e-09 DIIS
  Energy and wave function converged.


  ==> Post-Iterations <==

   @Spin Contamination Metric:  -2.042810365E-14
   @S^2 Expected:                0.000000000E+00
   @S^2 Observed:               -2.042810365E-14
   @S   Expected:                0.000000000E+00
   @S   Observed:                0.000000000E+00

    Orbital Energies [Eh]
    ---------------------

    Alpha Occupied:                                                       

       1A1   -20.568318     2A1    -1.350729     1B2    -0.714243  
       3A1    -0.584218     1B1    -0.509939  

    Alpha Virtual:                                                        

       4A1     0.029357     2B2     0.047674     5A1     0.135910  
       2B1     0.158838     6A1     0.175059     3B2     0.183037  
       4B2     0.227023     7A1     0.244810     1A2     0.265303  
       3B1     0.300126     8A1     0.310194     5B2     0.365681  
       9A1     0.436957     6B2     0.465699     7B2     0.599205  
      10A1     0.658074    11A1     0.708030     2A2     0.722512  
       4B1     0.731736    12A1     0.829738     5B1     0.845953  
      13A1     0.892441     8B2     0.912086     6B1     0.918737  
       3A2     0.922052     9B2     0.930422    14A1     0.961608  
      15A1     1.020127    10B2     1.042502     7B1     1.082331  
      11B2     1.108174     4A2     1.175511    16A1     1.180894  
      12B2     1.261618     5A2     1.509516    17A1     1.536767  
       8B1     1.582002    18A1     1.805865    13B2     1.816990  
      14B2     1.982208    19A1     2.115132     9B1     2.262209  
       6A2     2.315223    20A1     2.326853    21A1     2.417691  
      10B1     2.419805    15B2     2.442899    22A1     2.479158  
      16B2     2.678986    11B1     2.698635    23A1     2.768213  
      17B2     2.816750     7A2     2.882764    18B2     3.648520  
      24A1     3.739707     8A2     4.015035    12B1     4.080588  
      25A1     4.164833    19B2     4.242889    13B1     4.288368  
      26A1     4.375805     9A2     4.376190    14B1     4.402420  
      20B2     4.514196    27A1     4.720871    21B2     4.835428  
      22B2     5.141552    10A2     5.143084    23B2     5.248053  
      28A1     5.314597    15B1     5.513784    29A1     5.660858  
      30A1     6.171999    24B2     6.514363    16B1     6.708179  
      31A1     6.890904    17B1     7.129543    18B1     7.249027  
      25B2     7.297483    11A2     7.306482    32A1     7.325981  
      12A2     7.354012    33A1     7.525005    34A1     7.895619  
      26B2     7.913569    27B2     8.787646    35A1    15.651387  

    Beta Occupied:                                                        

       1A1   -20.568318     2A1    -1.350729     1B2    -0.714243  
       3A1    -0.584218     1B1    -0.509939  

    Beta Virtual:                                                         

       4A1     0.029357     2B2     0.047674     5A1     0.135910  
       2B1     0.158838     6A1     0.175059     3B2     0.183037  
       4B2     0.227023     7A1     0.244810     1A2     0.265303  
       3B1     0.300126     8A1     0.310194     5B2     0.365681  
       9A1     0.436957     6B2     0.465699     7B2     0.599205  
      10A1     0.658074    11A1     0.708030     2A2     0.722512  
       4B1     0.731736    12A1     0.829738     5B1     0.845953  
      13A1     0.892441     8B2     0.912086     6B1     0.918737  
       3A2     0.922052     9B2     0.930422    14A1     0.961608  
      15A1     1.020127    10B2     1.042502     7B1     1.082331  
      11B2     1.108174     4A2     1.175511    16A1     1.180894  
      12B2     1.261618     5A2     1.509516    17A1     1.536767  
       8B1     1.582002    18A1     1.805865    13B2     1.816990  
      14B2     1.982208    19A1     2.115132     9B1     2.262209  
       6A2     2.315223    20A1     2.326853    21A1     2.417691  
      10B1     2.419805    15B2     2.442899    22A1     2.479158  
      16B2     2.678986    11B1     2.698635    23A1     2.768213  
      17B2     2.816750     7A2     2.882764    18B2     3.648520  
      24A1     3.739707     8A2     4.015035    12B1     4.080588  
      25A1     4.164833    19B2     4.242889    13B1     4.288368  
      26A1     4.375805     9A2     4.376190    14B1     4.402420  
      20B2     4.514196    27A1     4.720871    21B2     4.835428  
      22B2     5.141552    10A2     5.143084    23B2     5.248053  
      28A1     5.314597    15B1     5.513784    29A1     5.660858  
      30A1     6.171999    24B2     6.514363    16B1     6.708179  
      31A1     6.890904    17B1     7.129543    18B1     7.249027  
      25B2     7.297483    11A2     7.306482    32A1     7.325981  
      12A2     7.354012    33A1     7.525005    34A1     7.895619  
      26B2     7.913569    27B2     8.787646    35A1    15.651387  

    Final Occupation by Irrep:
             A1    A2    B1    B2 
    DOCC [     3,    0,    1,    1 ]
    SOCC [     0,    0,    0,    0 ]

  @UHF Final Energy:   -76.06015074670530

   => Energetics <=

    Nuclear Repulsion Energy =              9.1390416229807698
    One-Electron Energy =                -122.9434925280260131
    Two-Electron Energy =                  37.7443001583399393
    Total Energy =                        -76.0601507467053040

  UHF NO Occupations:
  HONO-2 :    3 A1 2.0000000
  HONO-1 :    1 B1 2.0000000
  HONO-0 :    1 B2 2.0000000
  LUNO+0 :    4 A1 0.0000000
  LUNO+1 :    5 A1 0.0000000
  LUNO+2 :    6 A1 0.0000000
  LUNO+3 :    2 B1 0.0000000


Computation Completed


Properties will be evaluated at   0.000000,   0.000000,   0.000000 [a0]

Properties computed using the SCF density matrix

  Nuclear Dipole Moment: [e a0]
     X:     0.0000      Y:     0.0000      Z:     0.9836

  Electronic Dipole Moment: [e a0]
     X:     0.0000      Y:     0.0000      Z:    -0.2004

  Dipole Moment: [e a0]
     X:     0.0000      Y:     0.0000      Z:     0.7832     Total:     0.7832

  Dipole Moment: [D]
     X:     0.0000      Y:     0.0000      Z:     1.9907     Total:     1.9907


*** tstop() called on c5-18.compute.lan at Mon Mar  8 09:44:20 2021
Module time:
	user time   =      17.08 seconds =       0.28 minutes
	system time =       0.44 seconds =       0.01 minutes
	total time  =          2 seconds =       0.03 minutes
Total time:
	user time   =      17.08 seconds =       0.28 minutes
	system time =       0.44 seconds =       0.01 minutes
	total time  =          2 seconds =       0.03 minutes
 MINTS: Wrapper to libmints.
   by Justin Turney

   Calculation information:
      Number of threads:                12
      Number of atoms:                   3
      Number of AO shells:              32
      Number of SO shells:              23
      Number of primitives:             52
      Number of atomic orbitals:       105
      Number of basis functions:        92

      Number of irreps:                  4
      Integral cutoff                 0.00e+00
      Number of functions per irrep: [  35   12   18   27 ]

 OEINTS: Overlap, kinetic, potential, dipole, and quadrupole integrals
         stored in file 35.

      Computing two-electron integrals...done
      Computed 2239646 non-zero two-electron integrals.
        Stored in file 33.


*** tstart() called on c5-18.compute.lan
*** at Mon Mar  8 09:44:21 2021


	Wfn Parameters:
	--------------------
	Wavefunction         = CCSD_T
	Number of irreps     = 4
	Number of MOs        = 92
	Number of active MOs = 91
	AO-Basis             = NONE
	Semicanonical        = false
	Reference            = UHF
	Print Level          = 1

	IRREP	# MOs	# FZDC	# DOCC	# SOCC	# VIRT	# FZVR
	-----	-----	------	------	------	------	------
	 A1	   35	    1	    2	    0	    32	    0
	 A2	   12	    0	    0	    0	    12	    0
	 B1	   18	    0	    1	    0	    17	    0
	 B2	   27	    0	    1	    0	    26	    0
	Transforming integrals...
	IWL integrals will be deleted.
	(OO|OO)...
	Presorting SO-basis two-electron integrals.
	Sorting File: SO Ints (nn|nn) nbuckets = 1
	Transforming the one-electron integrals and constructing Fock matrices
	Starting AA/AB first half-transformation.
	Sorting AA/AB half-transformed integrals.
	Starting BB first half-transformation.
	Sorting BB half-transformed integrals.
	First half integral transformation complete.
	Starting AA second half-transformation.
	Starting AB second half-transformation.
	Starting BB second half-transformation.
	Two-electron integral transformation complete.
	(OO|OV)...
	Starting AA second half-transformation.
	Starting AB second half-transformation.
	Starting BB second half-transformation.
	Two-electron integral transformation complete.
	(OO|VV)...
	Starting AA second half-transformation.
	Starting AB second half-transformation.
	Starting BB second half-transformation.
	Two-electron integral transformation complete.
	(OV|OO)...
	Starting AA/AB first half-transformation.
	Sorting AA/AB half-transformed integrals.
	Starting BB first half-transformation.
	Sorting BB half-transformed integrals.
	First half integral transformation complete.
	Starting AA second half-transformation.
	Starting AB second half-transformation.
	Starting BB second half-transformation.
	Two-electron integral transformation complete.
	(OV|OV)...
	Starting AA second half-transformation.
	Starting AB second half-transformation.
	Starting BB second half-transformation.
	Two-electron integral transformation complete.
	(OV|VV)...
	Starting AA second half-transformation.
	Starting AB second half-transformation.
	Starting BB second half-transformation.
	Two-electron integral transformation complete.
	(VV|OO)...
	Starting AA/AB first half-transformation.
	Sorting AA/AB half-transformed integrals.
	Starting BB first half-transformation.
	Sorting BB half-transformed integrals.
	First half integral transformation complete.
	Starting AA second half-transformation.
	Starting AB second half-transformation.
	Starting BB second half-transformation.
	Two-electron integral transformation complete.
	(VV|OV)...
	Starting AA second half-transformation.
	Starting AB second half-transformation.
	Starting BB second half-transformation.
	Two-electron integral transformation complete.
	(VV|VV)...
	Starting AA second half-transformation.
	Starting AB second half-transformation.
	Starting BB second half-transformation.
	Two-electron integral transformation complete.
	Frozen core energy     =    -61.30324949044315

	Size of irrep 0 of <AB|CD> integrals:      1.047 (MW) /      8.372 (MB)
	Size of irrep 1 of <AB|CD> integrals:      0.682 (MW) /      5.458 (MB)
	Size of irrep 2 of <AB|CD> integrals:      0.733 (MW) /      5.862 (MB)
	Size of irrep 3 of <AB|CD> integrals:      1.073 (MW) /      8.586 (MB)
	Total:                                     3.535 (MW) /     28.279 (MB)

	Size of irrep 0 of <ab|cd> integrals:      1.047 (MW) /      8.372 (MB)
	Size of irrep 1 of <ab|cd> integrals:      0.682 (MW) /      5.458 (MB)
	Size of irrep 2 of <ab|cd> integrals:      0.733 (MW) /      5.862 (MB)
	Size of irrep 3 of <ab|cd> integrals:      1.073 (MW) /      8.586 (MB)
	Total:                                     3.535 (MW) /     28.279 (MB)

	Size of irrep 0 of <Ab|Cd> integrals:      4.550 (MW) /     36.398 (MB)
	Size of irrep 1 of <Ab|Cd> integrals:      2.729 (MW) /     21.833 (MB)
	Size of irrep 2 of <Ab|Cd> integrals:      2.931 (MW) /     23.448 (MB)
	Size of irrep 3 of <Ab|Cd> integrals:      4.293 (MW) /     34.345 (MB)
	Total:                                    14.503 (MW) /    116.023 (MB)

	Size of irrep 0 of <IA|BC> integrals:      0.228 (MW) /      1.826 (MB)
	Size of irrep 1 of <IA|BC> integrals:      0.111 (MW) /      0.885 (MB)
	Size of irrep 2 of <IA|BC> integrals:      0.134 (MW) /      1.068 (MB)
	Size of irrep 3 of <IA|BC> integrals:      0.199 (MW) /      1.591 (MB)
	Total:                                     0.671 (MW) /      5.371 (MB)

	Size of irrep 0 of <ia|bc> integrals:      0.228 (MW) /      1.826 (MB)
	Size of irrep 1 of <ia|bc> integrals:      0.111 (MW) /      0.885 (MB)
	Size of irrep 2 of <ia|bc> integrals:      0.134 (MW) /      1.068 (MB)
	Size of irrep 3 of <ia|bc> integrals:      0.199 (MW) /      1.591 (MB)
	Total:                                     0.671 (MW) /      5.371 (MB)

	Size of irrep 0 of <Ia|Bc> integrals:      0.228 (MW) /      1.826 (MB)
	Size of irrep 1 of <Ia|Bc> integrals:      0.111 (MW) /      0.885 (MB)
	Size of irrep 2 of <Ia|Bc> integrals:      0.134 (MW) /      1.068 (MB)
	Size of irrep 3 of <Ia|Bc> integrals:      0.199 (MW) /      1.591 (MB)
	Total:                                     0.671 (MW) /      5.371 (MB)

	Size of irrep 0 of <iA|bC> integrals:      0.228 (MW) /      1.826 (MB)
	Size of irrep 1 of <iA|bC> integrals:      0.111 (MW) /      0.885 (MB)
	Size of irrep 2 of <iA|bC> integrals:      0.134 (MW) /      1.068 (MB)
	Size of irrep 3 of <iA|bC> integrals:      0.199 (MW) /      1.591 (MB)
	Total:                                     0.671 (MW) /      5.371 (MB)

	Size of irrep 0 of tIjAb amplitudes:       0.013 (MW) /      0.102 (MB)
	Size of irrep 1 of tIjAb amplitudes:       0.003 (MW) /      0.026 (MB)
	Size of irrep 2 of tIjAb amplitudes:       0.007 (MW) /      0.055 (MB)
	Size of irrep 3 of tIjAb amplitudes:       0.008 (MW) /      0.066 (MB)
	Total:                                     0.031 (MW) /      0.250 (MB)

	Nuclear Rep. energy          =      9.13904162298077
	SCF energy                   =    -76.06015074670530
	One-electron energy          =    -41.47362952054454
	Two-electron (AA) energy     =      3.41685977732425
	Two-electron (BB) energy     =      3.41685977732427
	Two-electron (AB) energy     =     10.74396708665287
	Two-electron energy          =     17.57768664130139
	Reference energy             =    -76.06015074670553

*** tstop() called on c5-18.compute.lan at Mon Mar  8 09:44:28 2021
Module time:
	user time   =       2.81 seconds =       0.05 minutes
	system time =       3.19 seconds =       0.05 minutes
	total time  =          7 seconds =       0.12 minutes
Total time:
	user time   =      23.59 seconds =       0.39 minutes
	system time =       3.78 seconds =       0.06 minutes
	total time  =         10 seconds =       0.17 minutes
            **************************
            *                        *
            *        CCENERGY        *
            *                        *
            **************************

    Nuclear Rep. energy (wfn)     =    9.139041622980770
    SCF energy          (wfn)     =  -76.060150746705304
    Reference energy    (file100) =  -76.060150746705531

    Input parameters:
    -----------------
    Wave function   =     CCSD_T
    Reference wfn   =     UHF
    Brueckner       =     No
    Memory (Mbytes) =     4000.0
    Maxiter         =     50
    R_Convergence   =     1.0e-10
    E_Convergence   =     1.0e-10
    Restart         =     Yes
    DIIS            =     Yes
    AO Basis        =     NONE
    ABCD            =     NEW
    Cache Level     =     2
    Cache Type      =     LRU
    Print Level     =     1
    Num. of threads =     12
    # Amps to Print =     10
    Print MP2 Amps? =     No
    Analyze T2 Amps =     No
    Print Pair Ener =     No
    Local CC        =     No
    SCS-MP2         =     False
    SCSN-MP2        =     False
    SCS-CCSD        =     False

MP2 correlation energy -0.2688341928761425
                Solving CC Amplitude Equations
                ------------------------------
  Iter             Energy              RMS        T1Diag      D1Diag    New D1Diag    D2Diag
  ----     ---------------------    ---------   ----------  ----------  ----------   --------
     0        -0.268834192876143    0.000e+00    0.000000    0.000000    0.000000    0.000000
     1        -0.267286934791208    4.782e-02    0.012135    0.000000    0.000000    0.000000
     2        -0.272380493745857    1.319e-02    0.011908    0.000000    0.000000    0.000000
     3        -0.273606196326102    6.201e-03    0.013770    0.000000    0.000000    0.000000
     4        -0.273501316054478    1.249e-03    0.014094    0.000000    0.000000    0.000000
     5        -0.273485014706011    4.606e-04    0.014227    0.000000    0.000000    0.000000
     6        -0.273485906950440    1.149e-04    0.014257    0.000000    0.000000    0.000000
     7        -0.273484681121742    3.899e-05    0.014263    0.000000    0.000000    0.000000
     8        -0.273484725292281    1.070e-05    0.014265    0.000000    0.000000    0.000000
     9        -0.273484773270582    3.309e-06    0.014266    0.000000    0.000000    0.000000
    10        -0.273484651440842    1.342e-06    0.014266    0.000000    0.000000    0.000000
    11        -0.273484669936336    4.635e-07    0.014266    0.000000    0.000000    0.000000
    12        -0.273484664879393    1.721e-07    0.014266    0.000000    0.000000    0.000000
    13        -0.273484666699749    5.054e-08    0.014265    0.000000    0.000000    0.000000
    14        -0.273484667914501    1.337e-08    0.014265    0.000000    0.000000    0.000000
    15        -0.273484667965777    4.094e-09    0.014265    0.000000    0.000000    0.000000
    16        -0.273484667968283    1.248e-09    0.014265    0.000000    0.000000    0.000000
    17        -0.273484667977248    4.294e-10    0.014265    0.000000    0.000000    0.000000
    18        -0.273484667974210    1.110e-10    0.014265    0.000000    0.000000    0.000000
    19        -0.273484667973843    3.354e-11    0.014265    0.000000    0.000000    0.000000

    Iterations converged.


    Largest TIA Amplitudes:
              2  44        -0.0151791965
              2  45        -0.0130684531
              1   1         0.0085389709
              1   4        -0.0078255344
              3  73         0.0054636177
              2  54         0.0042815390
              3  69         0.0038179173
              2  47        -0.0036794671
              3  80         0.0036083333
              1  23         0.0034046492

    Largest Tia Amplitudes:
              2  44        -0.0151791965
              2  45        -0.0130684531
              1   1         0.0085389709
              1   4        -0.0078255344
              3  73         0.0054636177
              2  54         0.0042815390
              3  69         0.0038179173
              2  47        -0.0036794671
              3  80         0.0036083333
              1  23         0.0034046492

    Largest TIJAB Amplitudes:
      2   1  46   7        -0.0095589641
      3   1  66   6        -0.0093637419
      3   2  33   6        -0.0085844100
      3   1  65   9         0.0081231638
      2   1  49   9         0.0079616143
      3   2  65  49        -0.0076711400
      3   2  65  44        -0.0074346454
      3   1  66  13         0.0073978825
      2   1  48   9         0.0072918856
      3   2  65  45        -0.0072034417

    Largest Tijab Amplitudes:
      2   1  46   7        -0.0095589641
      3   1  66   6        -0.0093637419
      3   2  33   6        -0.0085844100
      3   1  65   9         0.0081231638
      2   1  49   9         0.0079616143
      3   2  65  49        -0.0076711400
      3   2  65  44        -0.0074346454
      3   1  66  13         0.0073978825
      2   1  48   9         0.0072918856
      3   2  65  45        -0.0072034417

    Largest TIjAb Amplitudes:
      3   3  65  65        -0.0217075109
      1   1   9   9        -0.0199482089
      2   2  49  49        -0.0157134879
      3   3  65  69        -0.0155639157
      3   3  69  65        -0.0155639157
      3   3  66  66        -0.0148573083
      1   1  66  66        -0.0137593428
      2   2  48  48        -0.0135744407
      3   3  69  69        -0.0131413179
      1   3   9  65         0.0128682812

    SCF energy       (wfn)                    =  -76.060150746705304
    Reference energy (file100)                =  -76.060150746705531

    Opposite-spin MP2 correlation energy      =   -0.203586264616544
    Same-spin MP2 correlation energy          =   -0.065247928259599
    MP2 correlation energy                    =   -0.268834192876143
      * MP2 total energy                      =  -76.328984939581673

    Opposite-spin CCSD correlation energy     =   -0.215579655006637
    Same-spin CCSD correlation energy         =   -0.057905012967205
    CCSD correlation energy                   =   -0.273484667973843
      * CCSD total energy                     =  -76.333635414679378

            **************************
            *                        *
            *        CCTRIPLES       *
            *                        *
            **************************


    Wave function   =    CCSD_T
    Reference wfn   =      UHF

    Nuclear Rep. energy (wfn)                =    9.139041622980770
    SCF energy          (wfn)                =  -76.060150746705304
    Reference energy    (file100)            =  -76.060150746705531
    CCSD energy         (file100)            =   -0.273484667973843
    Total CCSD energy   (file100)            =  -76.333635414679378

    Number of ijk index combinations:
    Spin Case AAA:                                   4
    Spin Case BBB:                                   4
    Spin Case AAB:                                  24
    Spin Case ABB:                                  24
    AAA (T) energy                             =   -0.000193714352713
    BBB (T) energy                             =   -0.000193714352713
    AAB (T) energy                             =   -0.004148862059148
    ABB (T) energy                             =   -0.004148862059148
    (T) energy                                   =   -0.008685152823722
      * CCSD(T) total energy                     =  -76.342320567503094

Stephenergy -76.3423205675031
    Psi4 stopped on: Monday, 08 March 2021 09:44AM
    Psi4 wall time for execution: 0:00:20.63

*** Psi4 exiting successfully. Buy a developer a beer!
