
    -----------------------------------------------------------------------
          Psi4: An Open-Source Ab Initio Electronic Structure Package
                               Psi4 1.3.2 release

                         Git: Rev {HEAD} ecbda83 


    R. M. Parrish, L. A. Burns, D. G. A. Smith, A. C. Simmonett,
    A. E. DePrince III, E. G. Hohenstein, U. Bozkaya, A. Yu. Sokolov,
    R. Di Remigio, R. M. Richard, J. F. Gonthier, A. M. James,
    H. R. McAlexander, A. Kumar, M. Saitow, X. Wang, B. P. Pritchard,
    P. Verma, H. F. Schaefer III, K. Patkowski, R. A. King, E. F. Valeev,
    F. A. Evangelista, J. M. Turney, T. D. Crawford, and C. D. Sherrill,
    J. Chem. Theory Comput. 13(7) pp 3185--3197 (2017).
    (doi: 10.1021/acs.jctc.7b00174)


                         Additional Contributions by
    P. Kraus, H. Kruse, M. H. Lechner, M. C. Schieber, R. A. Shaw,
    A. Alenaizan, R. Galvelis, Z. L. Glick, S. Lehtola, and J. P. Misiewicz

    -----------------------------------------------------------------------


    Psi4 started on: Monday, 08 March 2021 05:47PM

    Process ID: 24494
    Host:       c1-17.compute.lan
    PSIDATADIR: /apps/gb/PSI4/1.3.2/share/psi4
    Memory:     500.0 MiB
    Threads:    12
    
  ==> Input File <==

--------------------------------------------------------------------------
memory 4 GB

molecule  {
0 3
O    0.000000000000    0.000000000000    1.270171727200
H    0.000000000000   -0.759829662100    1.859550682300
H   -0.000000000000    0.759829662100    1.859550682300
O    0.000000000000   -0.000000000000   -1.504508923900
}
set {
basis aug-cc-pvtz
reference uhf
e_convergence 10
scf_type pk
freeze_core true
}

set ccenergy {
e_convergence 10
r_convergence 10
}

e = energy('ccsd(t)')

print_out('Stephenergy {}'.format(e))

--------------------------------------------------------------------------

  Memory set to   3.725 GiB by Python driver.

*** tstart() called on c1-17.compute.lan
*** at Mon Mar  8 17:47:48 2021

   => Loading Basis Set <=

    Name: AUG-CC-PVTZ
    Role: ORBITAL
    Keyword: BASIS
    atoms 1, 4 entry O          line   327 file /apps/gb/PSI4/1.3.2/share/psi4/basis/aug-cc-pvtz.gbs 
    atoms 2-3  entry H          line    36 file /apps/gb/PSI4/1.3.2/share/psi4/basis/aug-cc-pvtz.gbs 


         ---------------------------------------------------------
                                   SCF
               by Justin Turney, Rob Parrish, Andy Simmonett
                          and Daniel G. A. Smith
                              UHF Reference
                       12 Threads,   3814 MiB Core
         ---------------------------------------------------------

  ==> Geometry <==

    Molecular point group: c2v
    Full point group: C2v

    Geometry (in Angstrom), charge = 0, multiplicity = 3:

       Center              X                  Y                   Z               Mass       
    ------------   -----------------  -----------------  -----------------  -----------------
         O            0.000000000000     0.000000000000     1.270171727222    15.994914619570
         H            0.000000000000    -0.759829662100     1.859550682322     1.007825032230
         H           -0.000000000000     0.759829662100     1.859550682322     1.007825032230
         O            0.000000000000     0.000000000000    -1.504508923878    15.994914619570

  Running in c2v symmetry.

  Rotational constants: A =     14.48601  B =      0.24438  C =      0.24033 [cm^-1]
  Rotational constants: A = 434279.74649  B =   7326.41544  C =   7204.86740 [MHz]
  Nuclear repulsion =   23.813863240010402

  Charge       = 0
  Multiplicity = 3
  Electrons    = 18
  Nalpha       = 10
  Nbeta        = 8

  ==> Algorithm <==

  SCF Algorithm Type is PK.
  DIIS enabled.
  MOM disabled.
  Fractional occupation disabled.
  Guess Type is SAD.
  Energy threshold   = 1.00e-10
  Density threshold  = 1.00e-08
  Integral threshold = 0.00e+00

  ==> Primary Basis <==

  Basis Set: AUG-CC-PVTZ
    Blend: AUG-CC-PVTZ
    Number of shells: 46
    Number of basis function: 138
    Number of Cartesian functions: 160
    Spherical Harmonics?: true
    Max angular momentum: 3

  ==> Pre-Iterations <==

   -------------------------------------------------------
    Irrep   Nso     Nmo     Nalpha   Nbeta   Ndocc  Nsocc
   -------------------------------------------------------
     A1        54      54       0       0       0       0
     A2        17      17       0       0       0       0
     B1        29      29       0       0       0       0
     B2        38      38       0       0       0       0
   -------------------------------------------------------
    Total     138     138      10       8       8       2
   -------------------------------------------------------

  ==> Integral Setup <==

  Using in-core PK algorithm.
   Calculation information:
      Number of atoms:                   4
      Number of AO shells:              46
      Number of primitives:             82
      Number of atomic orbitals:       160
      Number of basis functions:       138

      Integral cutoff                 1.00e-12
      Number of threads:                12

  Performing in-core PK
  Using 91996872 doubles for integral storage.
  We computed 909550 shell quartets total.
  Whereas there are 584821 unique shell quartets.
    55.53 percent of shell quartets recomputed by reordering.

  ==> DiskJK: Disk-Based J/K Matrices <==

    J tasked:                  Yes
    K tasked:                  Yes
    wK tasked:                  No
    Memory [MiB]:             2861
    Schwarz Cutoff:          1E-12

    OpenMP threads:             12

  Minimum eigenvalue in the overlap matrix is 3.2360803878E-04.
  Using Symmetric Orthogonalization.

  SCF Guess: Superposition of Atomic Densities via on-the-fly atomic UHF.

  ==> Iterations <==

                        Total Energy        Delta E     RMS |[F,P]|

   @UHF iter SAD:  -149.38139713781976   -1.49381e+02   0.00000e+00 
   @UHF iter   1:  -150.76989262014121   -1.38850e+00   6.69773e-03 DIIS
   @UHF iter   2:  -150.84065034703599   -7.07577e-02   4.25854e-03 DIIS
   @UHF iter   3:  -150.87197952137311   -3.13292e-02   5.58880e-04 DIIS
   @UHF iter   4:  -150.87335381574599   -1.37429e-03   1.71111e-04 DIIS
   @UHF iter   5:  -150.87348794681247   -1.34131e-04   6.98283e-05 DIIS
   @UHF iter   6:  -150.87352107843543   -3.31316e-05   2.08615e-05 DIIS
   @UHF iter   7:  -150.87352418259667   -3.10416e-06   5.36207e-06 DIIS
   @UHF iter   8:  -150.87352440746082   -2.24864e-07   1.49236e-06 DIIS
   @UHF iter   9:  -150.87352442442887   -1.69680e-08   3.70712e-07 DIIS
   @UHF iter  10:  -150.87352442553808   -1.10921e-09   1.78275e-07 DIIS
   @UHF iter  11:  -150.87352442588434   -3.46262e-10   6.94755e-08 DIIS
   @UHF iter  12:  -150.87352442593865   -5.43139e-11   1.49180e-08 DIIS
   @UHF iter  13:  -150.87352442594050   -1.84741e-12   4.47078e-09 DIIS
  Energy and wave function converged.


  ==> Post-Iterations <==

   @Spin Contamination Metric:   9.530488341E-03
   @S^2 Expected:                2.000000000E+00
   @S^2 Observed:                2.009530488E+00
   @S   Expected:                1.000000000E+00
   @S   Observed:                1.000000000E+00

    Orbital Energies [Eh]
    ---------------------

    Alpha Occupied:                                                       

       1A1   -20.684529     2A1   -20.571199     3A1    -1.393949  
       4A1    -1.355275     1B2    -0.718714     5A1    -0.688198  
       1B1    -0.685251     6A1    -0.586446     2B2    -0.586261  
       2B1    -0.513968  

    Alpha Virtual:                                                        

       7A1     0.029553     3B2     0.047672     8A1     0.118599  
       3B1     0.154051     9A1     0.159470     4B2     0.180289  
       5B2     0.186920     4B1     0.192748    10A1     0.198009  
       1A2     0.263712     6B2     0.264044    11A1     0.264766  
      12A1     0.314357     5B1     0.326715    13A1     0.376040  
       7B2     0.380350    14A1     0.449980     8B2     0.464333  
       9B2     0.599990     6B1     0.643617    15A1     0.647420  
       2A2     0.658158    16A1     0.666513    17A1     0.696151  
       3A2     0.721700    10B2     0.722500     7B1     0.767507  
      18A1     0.792753    19A1     0.818540     8B1     0.837801  
      20A1     0.861027     9B1     0.901226    11B2     0.918620  
       4A2     0.924714    12B2     0.946260    13B2     0.979677  
      21A1     0.989723    10B1     1.012606    22A1     1.046344  
      14B2     1.051367    11B1     1.121926     5A2     1.176716  
      23A1     1.191614    15B2     1.198747    16B2     1.326823  
      24A1     1.336496    25A1     1.443287     6A2     1.507249  
      12B1     1.594012    26A1     1.666486    27A1     1.812433  
      17B2     1.822051    18B2     1.976761    28A1     2.040756  
      13B1     2.047759    19B2     2.054050     7A2     2.056759  
      14B1     2.058909    29A1     2.079168    30A1     2.114900  
       8A2     2.118691    20B2     2.135179    31A1     2.140242  
      15B1     2.145199    32A1     2.252109    21B2     2.267146  
      16B1     2.303361     9A2     2.311825    17B1     2.434024  
      33A1     2.470078    22B2     2.482253    34A1     2.486236  
      35A1     2.695608    18B1     2.715927    23B2     2.720832  
      36A1     2.839923    24B2     2.862088    10A2     2.880093  
      25B2     3.690619    37A1     3.753160    11A2     4.013186  
      19B1     4.079384    20B1     4.099244    38A1     4.139922  
      26B2     4.183227    27B2     4.281029    21B1     4.289274  
      39A1     4.350919    12A2     4.381627    40A1     4.427334  
      22B1     4.450997    28B2     4.515217    41A1     4.788492  
      29B2     4.839442    30B2     5.141315    13A2     5.144038  
      31B2     5.247820    42A1     5.339500    23B1     5.515826  
      43A1     5.683781    44A1     6.198389    24B1     6.388924  
      45A1     6.408846    14A2     6.410138    32B2     6.423576  
      25B1     6.435490    33B2     6.485539    46A1     6.535696  
      34B2     6.581823    26B1     6.716100    27B1     6.902276  
      47A1     6.905558    15A2     6.924506    48A1     6.939618  
      35B2     6.985625    49A1     7.046579    28B1     7.134792  
      29B1     7.277991    16A2     7.305839    36B2     7.308489  
      17A2     7.352279    50A1     7.437878    51A1     7.542047  
      52A1     7.908612    37B2     7.915295    38B2     8.804309  
      53A1     8.860233    54A1    15.769521  

    Beta Occupied:                                                        

       1A1   -20.605663     2A1   -20.570737     3A1    -1.354588  
       4A1    -1.051143     1B2    -0.718385     5A1    -0.588174  
       1B1    -0.513308     2B2    -0.495680  

    Beta Virtual:                                                         

       6A1     0.029392     3B2     0.047752     2B1     0.086504  
       7A1     0.091923     8A1     0.140939     9A1     0.167039  
       3B1     0.170625     4B2     0.180919     5B2     0.190508  
      10A1     0.225534     4B1     0.253278     1A2     0.263714  
       6B2     0.264491    11A1     0.288395    12A1     0.316747  
       5B1     0.328018     7B2     0.380522    13A1     0.386386  
      14A1     0.451065     8B2     0.464528     9B2     0.601608  
      15A1     0.660468     6B1     0.667436     2A2     0.672579  
      16A1     0.673622    17A1     0.713389     3A2     0.722165  
      10B2     0.734711     7B1     0.778774    18A1     0.806053  
       8B1     0.846936    19A1     0.850667     4A2     0.925101  
      20A1     0.928060    11B2     0.936369    12B2     0.953320  
      13B2     0.983417     9B1     0.986618    21A1     0.996886  
      14B2     1.052477    22A1     1.052498    10B1     1.060418  
      11B1     1.137954     5A2     1.176912    23A1     1.193105  
      15B2     1.201473    16B2     1.329218    24A1     1.393130  
      25A1     1.482666     6A2     1.507666    12B1     1.595981  
      26A1     1.696643    27A1     1.817454    17B2     1.822386  
      18B2     1.978151    28A1     2.070277    13B1     2.070814  
      19B2     2.071475     7A2     2.081398    29A1     2.099457  
      14B1     2.100298    30A1     2.155516    20B2     2.180878  
       8A2     2.201912    31A1     2.207661    15B1     2.258253  
      32A1     2.308894     9A2     2.311958    21B2     2.318948  
      16B1     2.319203    17B1     2.441855    33A1     2.483151  
      22B2     2.485132    34A1     2.514765    35A1     2.702987  
      18B1     2.717628    23B2     2.721733    36A1     2.852044  
      24B2     2.862269    10A2     2.880126    25B2     3.691487  
      37A1     3.753295    11A2     4.013215    19B1     4.081706  
      38A1     4.172077    26B2     4.218710    20B1     4.259603  
      27B2     4.292026    21B1     4.294010    12A2     4.381733  
      39A1     4.426201    22B1     4.456132    40A1     4.467714  
      28B2     4.515293    41A1     4.799271    29B2     4.839597  
      30B2     5.141494    13A2     5.144113    31B2     5.248225  
      42A1     5.340147    23B1     5.515936    43A1     5.688283  
      44A1     6.200040    24B1     6.485596    14A2     6.486968  
      32B2     6.487752    45A1     6.493071    25B1     6.499205  
      33B2     6.521135    46A1     6.607352    34B2     6.609760  
      26B1     6.722958    47A1     6.955029    15A2     7.038058  
      48A1     7.041919    27B1     7.084835    35B2     7.097486  
      28B1     7.135194    49A1     7.173945    29B1     7.282127  
      16A2     7.306105    36B2     7.308674    17A2     7.352690  
      50A1     7.440636    51A1     7.543120    52A1     7.909173  
      37B2     7.915642    38B2     8.804678    53A1     8.939657  
      54A1    15.769838  

    Final Occupation by Irrep:
             A1    A2    B1    B2 
    DOCC [     5,    0,    1,    2 ]
    SOCC [     1,    0,    1,    0 ]

  @UHF Final Energy:  -150.87352442594050

   => Energetics <=

    Nuclear Repulsion Energy =             23.8138632400104022
    One-Electron Energy =                -255.6933095484623095
    Two-Electron Energy =                  81.0059218825114158
    Total Energy =                       -150.8735244259405022

  UHF NO Occupations:
  HONO-2 :    5 A1 1.9970493
  HONO-1 :    6 A1 1.0000000
  HONO-0 :    2 B1 1.0000000
  LUNO+0 :    7 A1 0.0029507
  LUNO+1 :    3 B2 0.0017949
  LUNO+2 :    8 A1 0.0000216
  LUNO+3 :    9 A1 0.0000024


Computation Completed


Properties will be evaluated at   0.000000,   0.000000,   0.000000 [a0]

Properties computed using the SCF density matrix

  Nuclear Dipole Moment: [e a0]
     X:     0.0000      Y:     0.0000      Z:     3.4854

  Electronic Dipole Moment: [e a0]
     X:     0.0000      Y:     0.0000      Z:    -2.6490

  Dipole Moment: [e a0]
     X:     0.0000      Y:     0.0000      Z:     0.8364     Total:     0.8364

  Dipole Moment: [D]
     X:     0.0000      Y:     0.0000      Z:     2.1259     Total:     2.1259


*** tstop() called on c1-17.compute.lan at Mon Mar  8 17:47:53 2021
Module time:
	user time   =      38.65 seconds =       0.64 minutes
	system time =       1.94 seconds =       0.03 minutes
	total time  =          5 seconds =       0.08 minutes
Total time:
	user time   =      38.65 seconds =       0.64 minutes
	system time =       1.94 seconds =       0.03 minutes
	total time  =          5 seconds =       0.08 minutes
 MINTS: Wrapper to libmints.
   by Justin Turney

   Calculation information:
      Number of threads:                12
      Number of atoms:                   4
      Number of AO shells:              46
      Number of SO shells:              37
      Number of primitives:             82
      Number of atomic orbitals:       160
      Number of basis functions:       138

      Number of irreps:                  4
      Integral cutoff                 0.00e+00
      Number of functions per irrep: [  54   17   29   38 ]

 OEINTS: Overlap, kinetic, potential, dipole, and quadrupole integrals
         stored in file 35.

      Computing two-electron integrals...done
      Computed 11522271 non-zero two-electron integrals.
        Stored in file 33.


*** tstart() called on c1-17.compute.lan
*** at Mon Mar  8 17:47:56 2021


	Wfn Parameters:
	--------------------
	Wavefunction         = CCSD_T
	Number of irreps     = 4
	Number of MOs        = 138
	Number of active MOs = 136
	AO-Basis             = NONE
	Semicanonical        = false
	Reference            = UHF
	Print Level          = 1

	IRREP	# MOs	# FZDC	# DOCC	# SOCC	# VIRT	# FZVR
	-----	-----	------	------	------	------	------
	 A1	   54	    2	    3	    1	    48	    0
	 A2	   17	    0	    0	    0	    17	    0
	 B1	   29	    0	    1	    1	    27	    0
	 B2	   38	    0	    2	    0	    36	    0
	Transforming integrals...
	IWL integrals will be deleted.
	(OO|OO)...
	Presorting SO-basis two-electron integrals.
	Sorting File: SO Ints (nn|nn) nbuckets = 1
	Transforming the one-electron integrals and constructing Fock matrices
	Starting AA/AB first half-transformation.
	Sorting AA/AB half-transformed integrals.
	Starting BB first half-transformation.
	Sorting BB half-transformed integrals.
	First half integral transformation complete.
	Starting AA second half-transformation.
	Starting AB second half-transformation.
	Starting BB second half-transformation.
	Two-electron integral transformation complete.
	(OO|OV)...
	Starting AA second half-transformation.
	Starting AB second half-transformation.
	Starting BB second half-transformation.
	Two-electron integral transformation complete.
	(OO|VV)...
	Starting AA second half-transformation.
	Starting AB second half-transformation.
	Starting BB second half-transformation.
	Two-electron integral transformation complete.
	(OV|OO)...
	Starting AA/AB first half-transformation.
	Sorting AA/AB half-transformed integrals.
	Starting BB first half-transformation.
	Sorting BB half-transformed integrals.
	First half integral transformation complete.
	Starting AA second half-transformation.
	Starting AB second half-transformation.
	Starting BB second half-transformation.
	Two-electron integral transformation complete.
	(OV|OV)...
	Starting AA second half-transformation.
	Starting AB second half-transformation.
	Starting BB second half-transformation.
	Two-electron integral transformation complete.
	(OV|VV)...
	Starting AA second half-transformation.
	Starting AB second half-transformation.
	Starting BB second half-transformation.
	Two-electron integral transformation complete.
	(VV|OO)...
	Starting AA/AB first half-transformation.
	Sorting AA/AB half-transformed integrals.
	Starting BB first half-transformation.
	Sorting BB half-transformed integrals.
	First half integral transformation complete.
	Starting AA second half-transformation.
	Starting AB second half-transformation.
	Starting BB second half-transformation.
	Two-electron integral transformation complete.
	(VV|OV)...
	Starting AA second half-transformation.
	Starting AB second half-transformation.
	Starting BB second half-transformation.
	Two-electron integral transformation complete.
	(VV|VV)...
	Starting AA second half-transformation.
	Starting AB second half-transformation.
	Starting BB second half-transformation.
	Two-electron integral transformation complete.
	Frozen core energy     =   -126.36577373543169

	Size of irrep 0 of <AB|CD> integrals:      5.040 (MW) /     40.320 (MB)
	Size of irrep 1 of <AB|CD> integrals:      3.197 (MW) /     25.576 (MB)
	Size of irrep 2 of <AB|CD> integrals:      3.640 (MW) /     29.124 (MB)
	Size of irrep 3 of <AB|CD> integrals:      4.783 (MW) /     38.264 (MB)
	Total:                                    16.660 (MW) /    133.283 (MB)

	Size of irrep 0 of <ab|cd> integrals:      5.382 (MW) /     43.059 (MB)
	Size of irrep 1 of <ab|cd> integrals:      3.389 (MW) /     27.114 (MB)
	Size of irrep 2 of <ab|cd> integrals:      3.936 (MW) /     31.490 (MB)
	Size of irrep 3 of <ab|cd> integrals:      5.018 (MW) /     40.141 (MB)
	Total:                                    17.726 (MW) /    141.804 (MB)

	Size of irrep 0 of <Ab|Cd> integrals:     22.024 (MW) /    176.194 (MB)
	Size of irrep 1 of <Ab|Cd> integrals:     13.170 (MW) /    105.357 (MB)
	Size of irrep 2 of <Ab|Cd> integrals:     15.140 (MW) /    121.119 (MB)
	Size of irrep 3 of <Ab|Cd> integrals:     19.598 (MW) /    156.787 (MB)
	Total:                                    69.932 (MW) /    559.457 (MB)

	Size of irrep 0 of <IA|BC> integrals:      1.469 (MW) /     11.748 (MB)
	Size of irrep 1 of <IA|BC> integrals:      0.694 (MW) /      5.550 (MB)
	Size of irrep 2 of <IA|BC> integrals:      0.908 (MW) /      7.266 (MB)
	Size of irrep 3 of <IA|BC> integrals:      1.198 (MW) /      9.588 (MB)
	Total:                                     4.269 (MW) /     34.152 (MB)

	Size of irrep 0 of <ia|bc> integrals:      1.178 (MW) /      9.426 (MB)
	Size of irrep 1 of <ia|bc> integrals:      0.527 (MW) /      4.212 (MB)
	Size of irrep 2 of <ia|bc> integrals:      0.663 (MW) /      5.301 (MB)
	Size of irrep 3 of <ia|bc> integrals:      0.999 (MW) /      7.992 (MB)
	Total:                                     3.366 (MW) /     26.931 (MB)

	Size of irrep 0 of <Ia|Bc> integrals:      1.521 (MW) /     12.164 (MB)
	Size of irrep 1 of <Ia|Bc> integrals:      0.711 (MW) /      5.690 (MB)
	Size of irrep 2 of <Ia|Bc> integrals:      0.949 (MW) /      7.595 (MB)
	Size of irrep 3 of <Ia|Bc> integrals:      1.222 (MW) /      9.775 (MB)
	Total:                                     4.403 (MW) /     35.225 (MB)

	Size of irrep 0 of <iA|bC> integrals:      1.140 (MW) /      9.123 (MB)
	Size of irrep 1 of <iA|bC> integrals:      0.512 (MW) /      4.094 (MB)
	Size of irrep 2 of <iA|bC> integrals:      0.634 (MW) /      5.074 (MB)
	Size of irrep 3 of <iA|bC> integrals:      0.978 (MW) /      7.827 (MB)
	Total:                                     3.265 (MW) /     26.118 (MB)

	Size of irrep 0 of tIjAb amplitudes:       0.084 (MW) /      0.676 (MB)
	Size of irrep 1 of tIjAb amplitudes:       0.022 (MW) /      0.174 (MB)
	Size of irrep 2 of tIjAb amplitudes:       0.039 (MW) /      0.311 (MB)
	Size of irrep 3 of tIjAb amplitudes:       0.062 (MW) /      0.496 (MB)
	Total:                                     0.207 (MW) /      1.657 (MB)

	Nuclear Rep. energy          =     23.81386324001040
	SCF energy                   =   -150.87352442594050
	One-electron energy          =    -85.39388935013767
	Two-electron (AA) energy     =     10.36146555349134
	Two-electron (BB) energy     =      5.46567533475498
	Two-electron (AB) energy     =     21.24513453137106
	Two-electron energy          =     37.07227541961738
	Reference energy             =   -150.87352442594158

*** tstop() called on c1-17.compute.lan at Mon Mar  8 17:48:20 2021
Module time:
	user time   =     104.53 seconds =       1.74 minutes
	system time =      14.39 seconds =       0.24 minutes
	total time  =         24 seconds =       0.40 minutes
Total time:
	user time   =     148.07 seconds =       2.47 minutes
	system time =      16.87 seconds =       0.28 minutes
	total time  =         32 seconds =       0.53 minutes
            **************************
            *                        *
            *        CCENERGY        *
            *                        *
            **************************

    Nuclear Rep. energy (wfn)     =   23.813863240010402
    SCF energy          (wfn)     = -150.873524425940502
    Reference energy    (file100) = -150.873524425941582

    Input parameters:
    -----------------
    Wave function   =     CCSD_T
    Reference wfn   =     UHF
    Brueckner       =     No
    Memory (Mbytes) =     4000.0
    Maxiter         =     50
    R_Convergence   =     1.0e-10
    E_Convergence   =     1.0e-10
    Restart         =     Yes
    DIIS            =     Yes
    AO Basis        =     NONE
    ABCD            =     NEW
    Cache Level     =     2
    Cache Type      =     LRU
    Print Level     =     1
    Num. of threads =     12
    # Amps to Print =     10
    Print MP2 Amps? =     No
    Analyze T2 Amps =     No
    Print Pair Ener =     No
    Local CC        =     No
    SCS-MP2         =     False
    SCSN-MP2        =     False
    SCS-CCSD        =     False

MP2 correlation energy -0.4162742522471472
                Solving CC Amplitude Equations
                ------------------------------
  Iter             Energy              RMS        T1Diag      D1Diag    New D1Diag    D2Diag
  ----     ---------------------    ---------   ----------  ----------  ----------   --------
     0        -0.416274252247147    0.000e+00    0.000000    0.000000    0.000000    0.000000
     1        -0.427054298785949    5.698e-02    0.010579    0.000000    0.000000    0.000000
     2        -0.435151426841352    1.703e-02    0.011073    0.000000    0.000000    0.000000
     3        -0.437302927237618    8.772e-03    0.012994    0.000000    0.000000    0.000000
     4        -0.437176511888323    2.680e-03    0.013403    0.000000    0.000000    0.000000
     5        -0.437167021983085    1.394e-03    0.013595    0.000000    0.000000    0.000000
     6        -0.437196085637784    5.294e-04    0.013621    0.000000    0.000000    0.000000
     7        -0.437199059447706    2.145e-04    0.013615    0.000000    0.000000    0.000000
     8        -0.437199999477812    6.677e-05    0.013610    0.000000    0.000000    0.000000
     9        -0.437200684785765    2.385e-05    0.013610    0.000000    0.000000    0.000000
    10        -0.437199785663827    9.218e-06    0.013610    0.000000    0.000000    0.000000
    11        -0.437199951219977    3.998e-06    0.013609    0.000000    0.000000    0.000000
    12        -0.437199911530324    1.444e-06    0.013610    0.000000    0.000000    0.000000
    13        -0.437199919449017    7.300e-07    0.013610    0.000000    0.000000    0.000000
    14        -0.437199942001592    3.045e-07    0.013610    0.000000    0.000000    0.000000
    15        -0.437199943699801    1.109e-07    0.013610    0.000000    0.000000    0.000000
    16        -0.437199944271170    4.968e-08    0.013610    0.000000    0.000000    0.000000
    17        -0.437199944848945    1.915e-08    0.013610    0.000000    0.000000    0.000000
    18        -0.437199944706549    9.943e-09    0.013610    0.000000    0.000000    0.000000
    19        -0.437199944498873    3.928e-09    0.013610    0.000000    0.000000    0.000000
    20        -0.437199944488207    2.121e-09    0.013610    0.000000    0.000000    0.000000
    21        -0.437199944464931    8.107e-10    0.013610    0.000000    0.000000    0.000000
    22        -0.437199944463382    3.261e-10    0.013610    0.000000    0.000000    0.000000
    23        -0.437199944462427    1.692e-10    0.013610    0.000000    0.000000    0.000000
    24        -0.437199944462265    6.941e-11    0.013610    0.000000    0.000000    0.000000

    Iterations converged.


    Largest TIA Amplitudes:
              5  65        -0.0133342160
              5  67        -0.0111766995
              7  94         0.0103642976
              5  66        -0.0097199557
              4  65        -0.0074633218
              3   1         0.0074080835
              2   3         0.0072092617
              4  66         0.0071609978
              3   5        -0.0055963405
              3   6         0.0053875153

    Largest Tia Amplitudes:
              3  67        -0.0148349557
              2   2         0.0134216224
              3  69        -0.0107902593
              5  96         0.0079595580
              3  66        -0.0076695402
              2   1        -0.0068080598
              2   7         0.0056047518
              2   6        -0.0055722282
              1  25        -0.0054439022
              4 109         0.0053917361

    Largest TIJAB Amplitudes:
      7   4 100  71         0.0142772657
      7   4  55  23        -0.0135871423
      7   2 100  12        -0.0121384181
      4   2  71  12         0.0110283635
      6   5  50   9        -0.0086544648
      7   4  49  23         0.0082504794
      6   5  97  72        -0.0080798437
      7   4  94  71         0.0078457558
      7   4  55   8        -0.0076276656
      7   4 100  82        -0.0073817086

    Largest Tijab Amplitudes:
      5   1  66  56         0.0086752676
      5   1  66  50        -0.0085728330
      5   1  68  56         0.0081614240
      4   3  99  67        -0.0076501388
      5   1  68  50        -0.0074579145
      4   3  99  73        -0.0073224338
      4   2  99   2         0.0071818951
      4   2  99  12         0.0068622087
      4   2 100   9        -0.0067270830
      4   3  51  10        -0.0065446856

    Largest TIjAb Amplitudes:
      7   5 100 103        -0.0218798871
      6   4  97  99        -0.0218279612
      7   5 100 102         0.0188329515
      7   1  55  66        -0.0180644272
      7   5 100  96        -0.0170634668
      7   1  55  68        -0.0168461571
      4   1  23  66        -0.0167261373
      5   3  72  73        -0.0162573783
      4   1  23  68        -0.0155577628
      7   5  55  56        -0.0145655382

    SCF energy       (wfn)                    = -150.873524425940502
    Reference energy (file100)                = -150.873524425941582

    Opposite-spin MP2 correlation energy      =   -0.314432910282750
    Same-spin MP2 correlation energy          =   -0.101841341964398
    MP2 correlation energy                    =   -0.416274252247147
      * MP2 total energy                      = -151.289798678188731

    Opposite-spin CCSD correlation energy     =   -0.342092334649020
    Same-spin CCSD correlation energy         =   -0.095107609813245
    CCSD correlation energy                   =   -0.437199944462265
      * CCSD total energy                     = -151.310724370403847

            **************************
            *                        *
            *        CCTRIPLES       *
            *                        *
            **************************


    Wave function   =    CCSD_T
    Reference wfn   =      UHF

    Nuclear Rep. energy (wfn)                =   23.813863240010402
    SCF energy          (wfn)                = -150.873524425940502
    Reference energy    (file100)            = -150.873524425941582
    CCSD energy         (file100)            =   -0.437199944462265
    Total CCSD energy   (file100)            = -151.310724370403847

    Number of ijk index combinations:
    Spin Case AAA:                                  56
    Spin Case BBB:                                  20
    Spin Case AAB:                                 168
    Spin Case ABB:                                 120
    AAA (T) energy                             =   -0.000395720393369
    BBB (T) energy                             =   -0.000202137134528
    AAB (T) energy                             =   -0.006709949669285
    ABB (T) energy                             =   -0.004985150100290
    (T) energy                                   =   -0.012292957297471
      * CCSD(T) total energy                     = -151.323017327701308

Stephenergy -151.3230173277013
    Psi4 stopped on: Monday, 08 March 2021 05:49PM
    Psi4 wall time for execution: 0:01:33.60

*** Psi4 exiting successfully. Buy a developer a beer!
