
    -----------------------------------------------------------------------
          Psi4: An Open-Source Ab Initio Electronic Structure Package
                               Psi4 1.3.2 release

                         Git: Rev {HEAD} ecbda83 


    R. M. Parrish, L. A. Burns, D. G. A. Smith, A. C. Simmonett,
    A. E. DePrince III, E. G. Hohenstein, U. Bozkaya, A. Yu. Sokolov,
    R. Di Remigio, R. M. Richard, J. F. Gonthier, A. M. James,
    H. R. McAlexander, A. Kumar, M. Saitow, X. Wang, B. P. Pritchard,
    P. Verma, H. F. Schaefer III, K. Patkowski, R. A. King, E. F. Valeev,
    F. A. Evangelista, J. M. Turney, T. D. Crawford, and C. D. Sherrill,
    J. Chem. Theory Comput. 13(7) pp 3185--3197 (2017).
    (doi: 10.1021/acs.jctc.7b00174)


                         Additional Contributions by
    P. Kraus, H. Kruse, M. H. Lechner, M. C. Schieber, R. A. Shaw,
    A. Alenaizan, R. Galvelis, Z. L. Glick, S. Lehtola, and J. P. Misiewicz

    -----------------------------------------------------------------------


    Psi4 started on: Tuesday, 09 March 2021 03:24PM

    Process ID: 239468
    Host:       c4-16.compute.lan
    PSIDATADIR: /apps/gb/PSI4/1.3.2/share/psi4
    Memory:     500.0 MiB
    Threads:    12
    
  ==> Input File <==

--------------------------------------------------------------------------
memory 4 GB

molecule  {
0 3
O   -1.496507563314   -0.004634741093    0.000000000000 
H   -0.544190660261    0.141857331317    0.000000000000          
H   -1.876603198836    0.876050832924    0.000000000000
O    1.649039584090   -0.059502727148    0.000000000000
}
set {
basis aug-cc-pvtz
reference uhf
e_convergence 10
scf_type pk
freeze_core true
}

set ccenergy {
e_convergence 10
r_convergence 10
}

e = energy('ccsd(t)')

print_out('Stephenergy {}'.format(e))

--------------------------------------------------------------------------

  Memory set to   3.725 GiB by Python driver.

*** tstart() called on c4-16.compute.lan
*** at Tue Mar  9 15:24:31 2021

   => Loading Basis Set <=

    Name: AUG-CC-PVTZ
    Role: ORBITAL
    Keyword: BASIS
    atoms 1, 4 entry O          line   327 file /apps/gb/PSI4/1.3.2/share/psi4/basis/aug-cc-pvtz.gbs 
    atoms 2-3  entry H          line    36 file /apps/gb/PSI4/1.3.2/share/psi4/basis/aug-cc-pvtz.gbs 


         ---------------------------------------------------------
                                   SCF
               by Justin Turney, Rob Parrish, Andy Simmonett
                          and Daniel G. A. Smith
                              UHF Reference
                       12 Threads,   3814 MiB Core
         ---------------------------------------------------------

  ==> Geometry <==

    Molecular point group: cs
    Full point group: Cs

    Geometry (in Angstrom), charge = 0, multiplicity = 3:

       Center              X                  Y                   Z               Mass       
    ------------   -----------------  -----------------  -----------------  -----------------
         O           -1.496507563314    -0.004634741093     0.000000000000    15.994914619570
         H           -0.544190660261     0.141857331317     0.000000000000     1.007825032230
         H           -1.876603198836     0.876050832924     0.000000000000     1.007825032230
         O            1.649039584090    -0.059502727148     0.000000000000    15.994914619570

  Running in cs symmetry.

  Rotational constants: A =     23.18669  B =      0.20240  C =      0.20065 [cm^-1]
  Rotational constants: A = 695119.42998  B =   6067.84976  C =   6015.34054 [MHz]
  Nuclear repulsion =   23.002844819263171

  Charge       = 0
  Multiplicity = 3
  Electrons    = 18
  Nalpha       = 10
  Nbeta        = 8

  ==> Algorithm <==

  SCF Algorithm Type is PK.
  DIIS enabled.
  MOM disabled.
  Fractional occupation disabled.
  Guess Type is SAD.
  Energy threshold   = 1.00e-10
  Density threshold  = 1.00e-08
  Integral threshold = 0.00e+00

  ==> Primary Basis <==

  Basis Set: AUG-CC-PVTZ
    Blend: AUG-CC-PVTZ
    Number of shells: 46
    Number of basis function: 138
    Number of Cartesian functions: 160
    Spherical Harmonics?: true
    Max angular momentum: 3

  ==> Pre-Iterations <==

   -------------------------------------------------------
    Irrep   Nso     Nmo     Nalpha   Nbeta   Ndocc  Nsocc
   -------------------------------------------------------
     A'        92      92       0       0       0       0
     A"        46      46       0       0       0       0
   -------------------------------------------------------
    Total     138     138      10       8       8       2
   -------------------------------------------------------

  ==> Integral Setup <==

  Using in-core PK algorithm.
   Calculation information:
      Number of atoms:                   4
      Number of AO shells:              46
      Number of primitives:             82
      Number of atomic orbitals:       160
      Number of basis functions:       138

      Integral cutoff                 1.00e-12
      Number of threads:                12

  Performing in-core PK
  Using 91996872 doubles for integral storage.
  We computed 903687 shell quartets total.
  Whereas there are 584821 unique shell quartets.
    54.52 percent of shell quartets recomputed by reordering.

  ==> DiskJK: Disk-Based J/K Matrices <==

    J tasked:                  Yes
    K tasked:                  Yes
    wK tasked:                  No
    Memory [MiB]:             2861
    Schwarz Cutoff:          1E-12

    OpenMP threads:             12

  Minimum eigenvalue in the overlap matrix is 2.9395969198E-04.
  Using Symmetric Orthogonalization.

  SCF Guess: Superposition of Atomic Densities via on-the-fly atomic UHF.

  ==> Iterations <==

                        Total Energy        Delta E     RMS |[F,P]|

   @UHF iter SAD:  -149.40332754528077   -1.49403e+02   0.00000e+00 
   @UHF iter   1:  -150.76338852561022   -1.36006e+00   5.05765e-03 DIIS
   @UHF iter   2:  -150.83793604507275   -7.45475e-02   3.28191e-03 DIIS
   @UHF iter   3:  -150.87314131513210   -3.52053e-02   3.93522e-04 DIIS
   @UHF iter   4:  -150.87425585129512   -1.11454e-03   1.30749e-04 DIIS
   @UHF iter   5:  -150.87438251624741   -1.26665e-04   5.11700e-05 DIIS
   @UHF iter   6:  -150.87441672721096   -3.42110e-05   1.54039e-05 DIIS
   @UHF iter   7:  -150.87442053659552   -3.80938e-06   5.52469e-06 DIIS
   @UHF iter   8:  -150.87442137822035   -8.41625e-07   4.36901e-06 DIIS
   @UHF iter   9:  -150.87442209155205   -7.13332e-07   4.25067e-06 DIIS
   @UHF iter  10:  -150.87442318319776   -1.09165e-06   4.19179e-06 DIIS
   @UHF iter  11:  -150.87442911301116   -5.92981e-06   3.92367e-06 DIIS
   @UHF iter  12:  -150.87444466778112   -1.55548e-05   3.56450e-06 DIIS
   @UHF iter  13:  -150.87444738847114   -2.72069e-06   3.09160e-06 DIIS
   @UHF iter  14:  -150.87446294995510   -1.55615e-05   7.02769e-06 DIIS
   @UHF iter  15:  -150.87446292484682    2.51083e-08   5.70255e-06 DIIS
   @UHF iter  16:  -150.87446465139880   -1.72655e-06   5.94053e-06 DIIS
   @UHF iter  17:  -150.87446482434473   -1.72946e-07   2.50651e-06 DIIS
   @UHF iter  18:  -150.87446489350492   -6.91602e-08   1.22860e-06 DIIS
   @UHF iter  19:  -150.87446490394788   -1.04430e-08   2.83435e-07 DIIS
   @UHF iter  20:  -150.87446490423508   -2.87201e-10   1.76356e-07 DIIS
   @UHF iter  21:  -150.87446490440905   -1.73969e-10   5.06498e-09 DIIS
   @UHF iter  22:  -150.87446490440985   -7.95808e-13   1.54534e-09 DIIS
  Energy and wave function converged.


  ==> Post-Iterations <==

   @Spin Contamination Metric:   9.370085122E-03
   @S^2 Expected:                2.000000000E+00
   @S^2 Observed:                2.009370085E+00
   @S   Expected:                1.000000000E+00
   @S   Observed:                1.000000000E+00

    Orbital Energies [Eh]
    ---------------------

    Alpha Occupied:                                                       

       1Ap   -20.733682     2Ap   -20.558208     3Ap    -1.443082  
       4Ap    -1.342955     5Ap    -0.733800     1App   -0.733419  
       6Ap    -0.710806     7Ap    -0.635077     8Ap    -0.574505  
       2App   -0.501630  

    Alpha Virtual:                                                        

       9Ap     0.034305    10Ap     0.053441    11Ap     0.127985  
       3App    0.132703    12Ap     0.148159    13Ap     0.160889  
      14Ap     0.183952     4App    0.186989    15Ap     0.214430  
      16Ap     0.242287    17Ap     0.265385     5App    0.286335  
      18Ap     0.303481     6App    0.321396    19Ap     0.365699  
      20Ap     0.406068    21Ap     0.461264    22Ap     0.568122  
       7App    0.602085    23Ap     0.608514    24Ap     0.628899  
      25Ap     0.679606     8App    0.712048    26Ap     0.714917  
       9App    0.736621    10App    0.748541    27Ap     0.753776  
      28Ap     0.813421    11App    0.825959    29Ap     0.836812  
      12App    0.890807    30Ap     0.891317    31Ap     0.924176  
      32Ap     0.946484    13App    0.947718    33Ap     0.951910  
      14App    0.973952    34Ap     0.979697    35Ap     1.044662  
      36Ap     1.133572    15App    1.157227    37Ap     1.170598  
      38Ap     1.189262    39Ap     1.264183    16App    1.297015  
      40Ap     1.320654    17App    1.528526    41Ap     1.586321  
      18App    1.599768    42Ap     1.716764    43Ap     1.812151  
      44Ap     1.844664    45Ap     1.977162    19App    1.977202  
      46Ap     1.979730    20App    2.013044    47Ap     2.017920  
      21App    2.050362    48Ap     2.063848    22App    2.125537  
      49Ap     2.156639    50Ap     2.178540    23App    2.216826  
      24App    2.303692    51Ap     2.311197    52Ap     2.342616  
      53Ap     2.416819    25App    2.445511    54Ap     2.461096  
      55Ap     2.498580    26App    2.531011    56Ap     2.638474  
      57Ap     2.712594    27App    2.728690    58Ap     2.739400  
      59Ap     2.863357    60Ap     2.932768    28App    2.945145  
      61Ap     3.700807    62Ap     3.898990    29App    4.037241  
      30App    4.063022    63Ap     4.074915    31App    4.180820  
      64Ap     4.211042    65Ap     4.267870    32App    4.303964  
      33App    4.392163    66Ap     4.408056    34App    4.431853  
      67Ap     4.443401    68Ap     4.602039    69Ap     4.781376  
      70Ap     4.963752    35App    5.158076    71Ap     5.172141  
      72Ap     5.302451    73Ap     5.392764    36App    5.527768  
      74Ap     5.694177    75Ap     6.189580    37App    6.311759  
      76Ap     6.311790    38App    6.376113    77Ap     6.378954  
      39App    6.523776    78Ap     6.523996    79Ap     6.562053  
      80Ap     6.642611    40App    6.735850    81Ap     6.814014  
      41App    6.819818    82Ap     6.922659    42App    6.937225  
      83Ap     6.963200    84Ap     7.051725    43App    7.150282  
      44App    7.273658    45App    7.327894    85Ap     7.329601  
      86Ap     7.363837    46App    7.439068    87Ap     7.653661  
      88Ap     7.947759    89Ap     7.966104    90Ap     8.813677  
      91Ap     9.547087    92Ap    16.363706  

    Beta Occupied:                                                        

       1Ap   -20.654894     2Ap   -20.558346     3Ap    -1.343570  
       4Ap    -1.100629     5Ap    -0.709896     6Ap    -0.580047  
       7Ap    -0.541441     1App   -0.501676  

    Beta Virtual:                                                         

       8Ap     0.034411     2App    0.048950     9Ap     0.049133  
      10Ap     0.055230    11Ap     0.144068    12Ap     0.152642  
       3App    0.161142    13Ap     0.178282    14Ap     0.207920  
      15Ap     0.225161     4App    0.226931    16Ap     0.251166  
      17Ap     0.266626     5App    0.286554    18Ap     0.305647  
       6App    0.325397    19Ap     0.369658    20Ap     0.417312  
      21Ap     0.462506    22Ap     0.571750    23Ap     0.629306  
       7App    0.634443    24Ap     0.640612    25Ap     0.684241  
      26Ap     0.715539     8App    0.723905     9App    0.739967  
      10App    0.750317    27Ap     0.771161    28Ap     0.819744  
      29Ap     0.865958    11App    0.869315    30Ap     0.921008  
      12App    0.942634    31Ap     0.943091    13App    0.949869  
      32Ap     0.953238    33Ap     0.970609    34Ap     1.018930  
      14App    1.020995    35Ap     1.047226    15App    1.160512  
      36Ap     1.164328    37Ap     1.174832    38Ap     1.215797  
      39Ap     1.267152    16App    1.307629    40Ap     1.329691  
      17App    1.529280    41Ap     1.588830    18App    1.601269  
      42Ap     1.742035    43Ap     1.818213    44Ap     1.856132  
      45Ap     1.987762    46Ap     2.015174    19App    2.015179  
      20App    2.055500    47Ap     2.068272    21App    2.174708  
      48Ap     2.176574    22App    2.179647    49Ap     2.197082  
      50Ap     2.247830    23App    2.252907    24App    2.307115  
      51Ap     2.316900    52Ap     2.364163    53Ap     2.421041  
      25App    2.448132    54Ap     2.461825    55Ap     2.504989  
      26App    2.539506    56Ap     2.645662    57Ap     2.726580  
      27App    2.730104    58Ap     2.746961    59Ap     2.865210  
      60Ap     2.936885    28App    2.945772    61Ap     3.701511  
      62Ap     3.901569    29App    4.039670    30App    4.148990  
      63Ap     4.194439    64Ap     4.243719    31App    4.263645  
      65Ap     4.281022    32App    4.304017    33App    4.392237  
      66Ap     4.412631    34App    4.432564    67Ap     4.487297  
      68Ap     4.604177    69Ap     4.782916    70Ap     4.965821  
      35App    5.158068    71Ap     5.172531    72Ap     5.302709  
      73Ap     5.394021    36App    5.527846    74Ap     5.694563  
      75Ap     6.190828    76Ap     6.420616    37App    6.420620  
      38App    6.451269    77Ap     6.454092    78Ap     6.536110  
      39App    6.577558    79Ap     6.605869    80Ap     6.687219  
      40App    6.741834    81Ap     6.924580    41App    7.004918  
      82Ap     7.006546    42App    7.046388    83Ap     7.069768  
      84Ap     7.131456    43App    7.152732    44App    7.273987  
      45App    7.328567    85Ap     7.329878    86Ap     7.364535  
      46App    7.439488    87Ap     7.654474    88Ap     7.948451  
      89Ap     7.966673    90Ap     8.815410    91Ap     9.621945  
      92Ap    16.364013  

    Final Occupation by Irrep:
             Ap   App 
    DOCC [     7,    1 ]
    SOCC [     1,    1 ]

  @UHF Final Energy:  -150.87446490440985

   => Energetics <=

    Nuclear Repulsion Energy =             23.0028448192631707
    One-Electron Energy =                -253.7969568184927596
    Two-Electron Energy =                  79.9196470948197373
    Total Energy =                       -150.8744649044098480

  UHF NO Occupations:
  HONO-2 :    7 Ap 1.9970271
  HONO-1 :    8 Ap 1.0000000
  HONO-0 :    2App 1.0000000
  LUNO+0 :    9 Ap 0.0029729
  LUNO+1 :   10 Ap 0.0017129
  LUNO+2 :   11 Ap 0.0000024
  LUNO+3 :   12 Ap 0.0000019


Computation Completed


Properties will be evaluated at   0.000000,   0.000000,   0.000000 [a0]

Properties computed using the SCF density matrix

  Nuclear Dipole Moment: [e a0]
     X:    -2.2687      Y:     0.9539      Z:     0.0000

  Electronic Dipole Moment: [e a0]
     X:     2.7429      Y:    -0.2840      Z:     0.0000

  Dipole Moment: [e a0]
     X:     0.4743      Y:     0.6700      Z:     0.0000     Total:     0.8208

  Dipole Moment: [D]
     X:     1.2054      Y:     1.7029      Z:     0.0000     Total:     2.0863


*** tstop() called on c4-16.compute.lan at Tue Mar  9 15:24:40 2021
Module time:
	user time   =      76.72 seconds =       1.28 minutes
	system time =       2.64 seconds =       0.04 minutes
	total time  =          9 seconds =       0.15 minutes
Total time:
	user time   =      76.72 seconds =       1.28 minutes
	system time =       2.64 seconds =       0.04 minutes
	total time  =          9 seconds =       0.15 minutes
 MINTS: Wrapper to libmints.
   by Justin Turney

   Calculation information:
      Number of threads:                12
      Number of atoms:                   4
      Number of AO shells:              46
      Number of SO shells:              46
      Number of primitives:             82
      Number of atomic orbitals:       160
      Number of basis functions:       138

      Number of irreps:                  2
      Integral cutoff                 0.00e+00
      Number of functions per irrep: [  92   46 ]

 OEINTS: Overlap, kinetic, potential, dipole, and quadrupole integrals
         stored in file 35.

      Computing two-electron integrals...done
      Computed 22936856 non-zero two-electron integrals.
        Stored in file 33.


*** tstart() called on c4-16.compute.lan
*** at Tue Mar  9 15:24:44 2021


	Wfn Parameters:
	--------------------
	Wavefunction         = CCSD_T
	Number of irreps     = 2
	Number of MOs        = 138
	Number of active MOs = 136
	AO-Basis             = NONE
	Semicanonical        = false
	Reference            = UHF
	Print Level          = 1

	IRREP	# MOs	# FZDC	# DOCC	# SOCC	# VIRT	# FZVR
	-----	-----	------	------	------	------	------
	 Ap	   92	    2	    5	    1	    84	    0
	 App	   46	    0	    1	    1	    44	    0
	Transforming integrals...
	IWL integrals will be deleted.
	(OO|OO)...
	Presorting SO-basis two-electron integrals.
	Sorting File: SO Ints (nn|nn) nbuckets = 1
	Transforming the one-electron integrals and constructing Fock matrices
	Starting AA/AB first half-transformation.
	Sorting AA/AB half-transformed integrals.
	Starting BB first half-transformation.
	Sorting BB half-transformed integrals.
	First half integral transformation complete.
	Starting AA second half-transformation.
	Starting AB second half-transformation.
	Starting BB second half-transformation.
	Two-electron integral transformation complete.
	(OO|OV)...
	Starting AA second half-transformation.
	Starting AB second half-transformation.
	Starting BB second half-transformation.
	Two-electron integral transformation complete.
	(OO|VV)...
	Starting AA second half-transformation.
	Starting AB second half-transformation.
	Starting BB second half-transformation.
	Two-electron integral transformation complete.
	(OV|OO)...
	Starting AA/AB first half-transformation.
	Sorting AA/AB half-transformed integrals.
	Starting BB first half-transformation.
	Sorting BB half-transformed integrals.
	First half integral transformation complete.
	Starting AA second half-transformation.
	Starting AB second half-transformation.
	Starting BB second half-transformation.
	Two-electron integral transformation complete.
	(OV|OV)...
	Starting AA second half-transformation.
	Starting AB second half-transformation.
	Starting BB second half-transformation.
	Two-electron integral transformation complete.
	(OV|VV)...
	Starting AA second half-transformation.
	Starting AB second half-transformation.
	Starting BB second half-transformation.
	Two-electron integral transformation complete.
	(VV|OO)...
	Starting AA/AB first half-transformation.
	Sorting AA/AB half-transformed integrals.
	Starting BB first half-transformation.
	Sorting BB half-transformed integrals.
	First half integral transformation complete.
	Starting AA second half-transformation.
	Starting AB second half-transformation.
	Starting BB second half-transformation.
	Two-electron integral transformation complete.
	(VV|OV)...
	Starting AA second half-transformation.
	Starting AB second half-transformation.
	Starting BB second half-transformation.
	Two-electron integral transformation complete.
	(VV|VV)...
	Starting AA second half-transformation.
	Starting AB second half-transformation.
	Starting BB second half-transformation.
	Two-electron integral transformation complete.
	Frozen core energy     =   -125.89316463922164

	Size of irrep 0 of <AB|CD> integrals:     19.643 (MW) /    157.141 (MB)
	Size of irrep 1 of <AB|CD> integrals:     13.660 (MW) /    109.283 (MB)
	Total:                                    33.303 (MW) /    266.424 (MB)

	Size of irrep 0 of <ab|cd> integrals:     20.794 (MW) /    166.349 (MB)
	Size of irrep 1 of <ab|cd> integrals:     14.631 (MW) /    117.045 (MB)
	Total:                                    35.424 (MW) /    283.394 (MB)

	Size of irrep 0 of <Ab|Cd> integrals:     83.174 (MW) /    665.395 (MB)
	Size of irrep 1 of <Ab|Cd> integrals:     56.550 (MW) /    452.403 (MB)
	Total:                                   139.725 (MW) /   1117.798 (MB)

	Size of irrep 0 of <IA|BC> integrals:      5.323 (MW) /     42.586 (MB)
	Size of irrep 1 of <IA|BC> integrals:      3.193 (MW) /     25.547 (MB)
	Total:                                     8.517 (MW) /     68.133 (MB)

	Size of irrep 0 of <ia|bc> integrals:      4.348 (MW) /     34.780 (MB)
	Size of irrep 1 of <ia|bc> integrals:      2.372 (MW) /     18.972 (MB)
	Total:                                     6.719 (MW) /     53.752 (MB)

	Size of irrep 0 of <Ia|Bc> integrals:      5.472 (MW) /     43.776 (MB)
	Size of irrep 1 of <Ia|Bc> integrals:      3.309 (MW) /     26.470 (MB)
	Total:                                     8.781 (MW) /     70.246 (MB)

	Size of irrep 0 of <iA|bC> integrals:      4.232 (MW) /     33.853 (MB)
	Size of irrep 1 of <iA|bC> integrals:      2.286 (MW) /     18.289 (MB)
	Total:                                     6.518 (MW) /     52.142 (MB)

	Size of irrep 0 of tIjAb amplitudes:       0.292 (MW) /      2.335 (MB)
	Size of irrep 1 of tIjAb amplitudes:       0.120 (MW) /      0.963 (MB)
	Total:                                     0.412 (MW) /      3.297 (MB)

	Nuclear Rep. energy          =     23.00284481926317
	SCF energy                   =   -150.87446490440985
	One-electron energy          =    -84.51575704122581
	Two-electron (AA) energy     =     10.15409709499145
	Two-electron (BB) energy     =      5.40196086472918
	Two-electron (AB) energy     =     20.97555399705281
	Two-electron energy          =     36.53161195677345
	Reference energy             =   -150.87446490441084

*** tstop() called on c4-16.compute.lan at Tue Mar  9 15:25:24 2021
Module time:
	user time   =     127.13 seconds =       2.12 minutes
	system time =      21.19 seconds =       0.35 minutes
	total time  =         40 seconds =       0.67 minutes
Total time:
	user time   =     210.44 seconds =       3.51 minutes
	system time =      24.53 seconds =       0.41 minutes
	total time  =         53 seconds =       0.88 minutes
            **************************
            *                        *
            *        CCENERGY        *
            *                        *
            **************************

    Nuclear Rep. energy (wfn)     =   23.002844819263171
    SCF energy          (wfn)     = -150.874464904409848
    Reference energy    (file100) = -150.874464904410843

    Input parameters:
    -----------------
    Wave function   =     CCSD_T
    Reference wfn   =     UHF
    Brueckner       =     No
    Memory (Mbytes) =     4000.0
    Maxiter         =     50
    R_Convergence   =     1.0e-10
    E_Convergence   =     1.0e-10
    Restart         =     Yes
    DIIS            =     Yes
    AO Basis        =     NONE
    ABCD            =     NEW
    Cache Level     =     2
    Cache Type      =     LRU
    Print Level     =     1
    Num. of threads =     12
    # Amps to Print =     10
    Print MP2 Amps? =     No
    Analyze T2 Amps =     No
    Print Pair Ener =     No
    Local CC        =     No
    SCS-MP2         =     False
    SCSN-MP2        =     False
    SCS-CCSD        =     False

MP2 correlation energy -0.4166101361881552
                Solving CC Amplitude Equations
                ------------------------------
  Iter             Energy              RMS        T1Diag      D1Diag    New D1Diag    D2Diag
  ----     ---------------------    ---------   ----------  ----------  ----------   --------
     0        -0.416610136188155    0.000e+00    0.000000    0.000000    0.000000    0.000000
     1        -0.427339017824046    5.686e-02    0.010554    0.000000    0.000000    0.000000
     2        -0.435421454817046    1.688e-02    0.011035    0.000000    0.000000    0.000000
     3        -0.437539966728511    8.578e-03    0.012908    0.000000    0.000000    0.000000
     4        -0.437414282861968    2.537e-03    0.013277    0.000000    0.000000    0.000000
     5        -0.437399424136301    1.328e-03    0.013435    0.000000    0.000000    0.000000
     6        -0.437426885374786    5.172e-04    0.013459    0.000000    0.000000    0.000000
     7        -0.437431596729150    2.699e-04    0.013454    0.000000    0.000000    0.000000
     8        -0.437432166102873    1.018e-04    0.013450    0.000000    0.000000    0.000000
     9        -0.437433561098599    7.573e-05    0.013451    0.000000    0.000000    0.000000
    10        -0.437431946981549    6.478e-05    0.013452    0.000000    0.000000    0.000000
    11        -0.437432106429435    6.156e-05    0.013454    0.000000    0.000000    0.000000
    12        -0.437431830596351    5.974e-05    0.013456    0.000000    0.000000    0.000000
    13        -0.437431831141676    5.862e-05    0.013459    0.000000    0.000000    0.000000
    14        -0.437433008278285    5.682e-05    0.013476    0.000000    0.000000    0.000000
    15        -0.437433395349266    5.036e-05    0.013548    0.000000    0.000000    0.000000
    16        -0.437433152280117    3.357e-05    0.013685    0.000000    0.000000    0.000000
    17        -0.437432799715285    1.615e-05    0.013752    0.000000    0.000000    0.000000
    18        -0.437432661244724    7.579e-06    0.013769    0.000000    0.000000    0.000000
    19        -0.437432916036475    3.367e-06    0.013774    0.000000    0.000000    0.000000
    20        -0.437433029040927    1.511e-06    0.013774    0.000000    0.000000    0.000000
    21        -0.437433037301670    6.064e-07    0.013774    0.000000    0.000000    0.000000
    22        -0.437433038862024    2.947e-07    0.013775    0.000000    0.000000    0.000000
    23        -0.437433037615853    1.547e-07    0.013775    0.000000    0.000000    0.000000
    24        -0.437433036734819    6.466e-08    0.013775    0.000000    0.000000    0.000000
    25        -0.437433037731044    3.541e-08    0.013775    0.000000    0.000000    0.000000
    26        -0.437433038213932    2.776e-08    0.013775    0.000000    0.000000    0.000000
    27        -0.437433038377721    2.613e-08    0.013775    0.000000    0.000000    0.000000
    28        -0.437433038320125    2.541e-08    0.013775    0.000000    0.000000    0.000000
    29        -0.437433038148692    2.479e-08    0.013775    0.000000    0.000000    0.000000
    30        -0.437433037862686    2.382e-08    0.013775    0.000000    0.000000    0.000000
    31        -0.437433038038926    2.079e-08    0.013775    0.000000    0.000000    0.000000
    32        -0.437433038416439    1.150e-08    0.013775    0.000000    0.000000    0.000000
    33        -0.437433038539267    5.109e-09    0.013775    0.000000    0.000000    0.000000
    34        -0.437433038605166    2.077e-09    0.013775    0.000000    0.000000    0.000000
    35        -0.437433038612455    7.665e-10    0.013775    0.000000    0.000000    0.000000
    36        -0.437433038613422    3.267e-10    0.013775    0.000000    0.000000    0.000000
    37        -0.437433038611973    1.394e-10    0.013775    0.000000    0.000000    0.000000
    38        -0.437433038613739    6.417e-11    0.013775    0.000000    0.000000    0.000000

    Iterations converged.


    Largest TIA Amplitudes:
              7  87        -0.0121886033
              7  84        -0.0116290810
              7  85        -0.0094201579
              4   3         0.0090341761
              6  84        -0.0080660344
              5   9        -0.0076417246
              4  10         0.0072107416
              5   2        -0.0069795405
              2   2         0.0069301714
              7  86        -0.0062808376

    Largest Tia Amplitudes:
              5  86        -0.0121798442
              5  89        -0.0117314725
              5  85        -0.0101577202
              4   1        -0.0096445815
              3   3         0.0089446855
              3  10        -0.0069489162
              5  88        -0.0065129073
              5  87        -0.0061615888
              3  11         0.0060812154
              4   7        -0.0055325060

    Largest TIJAB Amplitudes:
      6   2  92  20         0.0105095559
      6   2 101  38        -0.0100933886
      6   4  92  29         0.0094449384
      6   2  92  21        -0.0091699437
      4   2  41  40         0.0083000372
      4   2  29  20        -0.0079797368
      6   2 102  38         0.0074824316
      4   2  29  21         0.0074374916
      6   2 111  54        -0.0073744511
      6   2  88  38         0.0073612024

    Largest Tijab Amplitudes:
      4   1  42   1         0.0069701109
      4   1  91  85        -0.0066135415
      4   1  19   1         0.0062540451
      4   1 106  85        -0.0062349519
      5   2  94  13         0.0062164062
      5   2 100  17         0.0059151125
      5   2  89  13         0.0059023716
      5   2  92  17        -0.0058901692
      5   2  86  13         0.0057074683
      5   3  89  11         0.0052479040

    Largest TIjAb Amplitudes:
      3   2  12  13         0.0182708575
      2   1  38   1        -0.0170590068
      6   1  38  85        -0.0168138770
      4   4  29  30        -0.0156922281
      4   1 103  85        -0.0152280355
      2   1 101  85         0.0150392301
      6   1 101   1        -0.0146148104
      4   1  41   1        -0.0145149477
      2   1  88  85        -0.0143951505
      6   1  88   1         0.0140080149

    SCF energy       (wfn)                    = -150.874464904409848
    Reference energy (file100)                = -150.874464904410843

    Opposite-spin MP2 correlation energy      =   -0.314617247217951
    Same-spin MP2 correlation energy          =   -0.101992888970205
    MP2 correlation energy                    =   -0.416610136188155
      * MP2 total energy                      = -151.291075040598997

    Opposite-spin CCSD correlation energy     =   -0.342149046161265
    Same-spin CCSD correlation energy         =   -0.095283992452474
    CCSD correlation energy                   =   -0.437433038613739
      * CCSD total energy                     = -151.311897943024576

            **************************
            *                        *
            *        CCTRIPLES       *
            *                        *
            **************************


    Wave function   =    CCSD_T
    Reference wfn   =      UHF

    Nuclear Rep. energy (wfn)                =   23.002844819263171
    SCF energy          (wfn)                = -150.874464904409848
    Reference energy    (file100)            = -150.874464904410843
    CCSD energy         (file100)            =   -0.437433038613739
    Total CCSD energy   (file100)            = -151.311897943024576

    Number of ijk index combinations:
    Spin Case AAA:                                  56
    Spin Case BBB:                                  20
    Spin Case AAB:                                 168
    Spin Case ABB:                                 120
    AAA (T) energy                             =   -0.000399973661825
    BBB (T) energy                             =   -0.000202870050719
    AAB (T) energy                             =   -0.006744369666048
    ABB (T) energy                             =   -0.005010377059348
    (T) energy                                   =   -0.012357590437940
      * CCSD(T) total energy                     = -151.324255533462519

Stephenergy -151.32425553346252
    Psi4 stopped on: Tuesday, 09 March 2021 03:28PM
    Psi4 wall time for execution: 0:03:58.07

*** Psi4 exiting successfully. Buy a developer a beer!
