
Host: ss-sub1.gacrc.uga.edu

Timers On : Wed Mar 10 09:11:20 2021
Timers Off: Wed Mar 10 09:56:58 2021

Wall Time:     2737.92 seconds

                                                       Time (seconds)
Module                                       User      System        Wall        Calls

--------------------------------------------------------------------------------------

**************************************************************************************
