
    -----------------------------------------------------------------------
          Psi4: An Open-Source Ab Initio Electronic Structure Package
                               Psi4 1.3.2 release

                         Git: Rev {HEAD} ecbda83 


    R. M. Parrish, L. A. Burns, D. G. A. Smith, A. C. Simmonett,
    A. E. DePrince III, E. G. Hohenstein, U. Bozkaya, A. Yu. Sokolov,
    R. Di Remigio, R. M. Richard, J. F. Gonthier, A. M. James,
    H. R. McAlexander, A. Kumar, M. Saitow, X. Wang, B. P. Pritchard,
    P. Verma, H. F. Schaefer III, K. Patkowski, R. A. King, E. F. Valeev,
    F. A. Evangelista, J. M. Turney, T. D. Crawford, and C. D. Sherrill,
    J. Chem. Theory Comput. 13(7) pp 3185--3197 (2017).
    (doi: 10.1021/acs.jctc.7b00174)


                         Additional Contributions by
    P. Kraus, H. Kruse, M. H. Lechner, M. C. Schieber, R. A. Shaw,
    A. Alenaizan, R. Galvelis, Z. L. Glick, S. Lehtola, and J. P. Misiewicz

    -----------------------------------------------------------------------


    Psi4 started on: Monday, 08 March 2021 05:36PM

    Process ID: 712
    Host:       c2-1.compute.lan
    PSIDATADIR: /apps/gb/PSI4/1.3.2/share/psi4
    Memory:     500.0 MiB
    Threads:    12
    
  ==> Input File <==

--------------------------------------------------------------------------
memory 4 GB

molecule  {
0 3
O    0.000000000000    0.000000000000    1.268861218900
H    0.000000000000   -0.759959574100    1.857959265800
H   -0.000000000000    0.759959574100    1.857959265800
O    0.000000000000   -0.000000000000   -1.502997868100
}
set {
basis aug-cc-pvtz
reference uhf
e_convergence 10
scf_type pk
freeze_core true
}

set ccenergy {
e_convergence 10
r_convergence 10
}

e = energy('ccsd(t)')

print_out('Stephenergy {}'.format(e))

--------------------------------------------------------------------------

  Memory set to   3.725 GiB by Python driver.

*** tstart() called on c2-1.compute.lan
*** at Mon Mar  8 17:36:13 2021

   => Loading Basis Set <=

    Name: AUG-CC-PVTZ
    Role: ORBITAL
    Keyword: BASIS
    atoms 1, 4 entry O          line   327 file /apps/gb/PSI4/1.3.2/share/psi4/basis/aug-cc-pvtz.gbs 
    atoms 2-3  entry H          line    36 file /apps/gb/PSI4/1.3.2/share/psi4/basis/aug-cc-pvtz.gbs 


         ---------------------------------------------------------
                                   SCF
               by Justin Turney, Rob Parrish, Andy Simmonett
                          and Daniel G. A. Smith
                              UHF Reference
                       12 Threads,   3814 MiB Core
         ---------------------------------------------------------

  ==> Geometry <==

    Molecular point group: c2v
    Full point group: C2v

    Geometry (in Angstrom), charge = 0, multiplicity = 3:

       Center              X                  Y                   Z               Mass       
    ------------   -----------------  -----------------  -----------------  -----------------
         O           -0.000000000000     0.000000000000     1.268861218882    15.994914619570
         H            0.000000000000    -0.759959574100     1.857959265782     1.007825032230
         H           -0.000000000000     0.759959574100     1.857959265782     1.007825032230
         O           -0.000000000000     0.000000000000    -1.502997868118    15.994914619570

  Running in c2v symmetry.

  Rotational constants: A =     14.48106  B =      0.24487  C =      0.24080 [cm^-1]
  Rotational constants: A = 434131.28247  B =   7341.08430  C =   7219.01207 [MHz]
  Nuclear repulsion =   23.829000204492875

  Charge       = 0
  Multiplicity = 3
  Electrons    = 18
  Nalpha       = 10
  Nbeta        = 8

  ==> Algorithm <==

  SCF Algorithm Type is PK.
  DIIS enabled.
  MOM disabled.
  Fractional occupation disabled.
  Guess Type is SAD.
  Energy threshold   = 1.00e-10
  Density threshold  = 1.00e-08
  Integral threshold = 0.00e+00

  ==> Primary Basis <==

  Basis Set: AUG-CC-PVTZ
    Blend: AUG-CC-PVTZ
    Number of shells: 46
    Number of basis function: 138
    Number of Cartesian functions: 160
    Spherical Harmonics?: true
    Max angular momentum: 3

  ==> Pre-Iterations <==

   -------------------------------------------------------
    Irrep   Nso     Nmo     Nalpha   Nbeta   Ndocc  Nsocc
   -------------------------------------------------------
     A1        54      54       0       0       0       0
     A2        17      17       0       0       0       0
     B1        29      29       0       0       0       0
     B2        38      38       0       0       0       0
   -------------------------------------------------------
    Total     138     138      10       8       8       2
   -------------------------------------------------------

  ==> Integral Setup <==

  Using in-core PK algorithm.
   Calculation information:
      Number of atoms:                   4
      Number of AO shells:              46
      Number of primitives:             82
      Number of atomic orbitals:       160
      Number of basis functions:       138

      Integral cutoff                 1.00e-12
      Number of threads:                12

  Performing in-core PK
  Using 91996872 doubles for integral storage.
  We computed 909791 shell quartets total.
  Whereas there are 584821 unique shell quartets.
    55.57 percent of shell quartets recomputed by reordering.

  ==> DiskJK: Disk-Based J/K Matrices <==

    J tasked:                  Yes
    K tasked:                  Yes
    wK tasked:                  No
    Memory [MiB]:             2861
    Schwarz Cutoff:          1E-12

    OpenMP threads:             12

  Minimum eigenvalue in the overlap matrix is 3.2320021814E-04.
  Using Symmetric Orthogonalization.

  SCF Guess: Superposition of Atomic Densities via on-the-fly atomic UHF.

  ==> Iterations <==

                        Total Energy        Delta E     RMS |[F,P]|

   @UHF iter SAD:  -149.38152927894794   -1.49382e+02   0.00000e+00 
   @UHF iter   1:  -150.76988711810151   -1.38836e+00   6.69656e-03 DIIS
   @UHF iter   2:  -150.84066998411043   -7.07829e-02   4.25656e-03 DIIS
   @UHF iter   3:  -150.87197552116129   -3.13055e-02   5.59211e-04 DIIS
   @UHF iter   4:  -150.87335275517077   -1.37723e-03   1.71045e-04 DIIS
   @UHF iter   5:  -150.87348689887466   -1.34144e-04   6.98084e-05 DIIS
   @UHF iter   6:  -150.87352000875376   -3.31099e-05   2.08658e-05 DIIS
   @UHF iter   7:  -150.87352311386221   -3.10511e-06   5.36474e-06 DIIS
   @UHF iter   8:  -150.87352333891977   -2.25058e-07   1.49552e-06 DIIS
   @UHF iter   9:  -150.87352335596901   -1.70492e-08   3.73333e-07 DIIS
   @UHF iter  10:  -150.87352335709659   -1.12757e-09   1.79741e-07 DIIS
   @UHF iter  11:  -150.87352335744936   -3.52770e-10   6.97404e-08 DIIS
   @UHF iter  12:  -150.87352335750376   -5.43992e-11   1.49614e-08 DIIS
   @UHF iter  13:  -150.87352335750569   -1.93268e-12   4.47563e-09 DIIS
  Energy and wave function converged.


  ==> Post-Iterations <==

   @Spin Contamination Metric:   9.532337143E-03
   @S^2 Expected:                2.000000000E+00
   @S^2 Observed:                2.009532337E+00
   @S   Expected:                1.000000000E+00
   @S   Observed:                1.000000000E+00

    Orbital Energies [Eh]
    ---------------------

    Alpha Occupied:                                                       

       1A1   -20.684474     2A1   -20.571179     3A1    -1.393904  
       4A1    -1.355297     1B2    -0.718833     5A1    -0.688186  
       1B1    -0.685202     6A1    -0.586374     2B2    -0.586212  
       2B1    -0.513977  

    Alpha Virtual:                                                        

       7A1     0.029557     3B2     0.047669     8A1     0.118560  
       3B1     0.154065     9A1     0.159476     4B2     0.180281  
       5B2     0.186958     4B1     0.192755    10A1     0.198018  
       1A2     0.263693     6B2     0.264108    11A1     0.264846  
      12A1     0.314373     5B1     0.326802    13A1     0.376045  
       7B2     0.380344    14A1     0.449967     8B2     0.464340  
       9B2     0.600026     6B1     0.643657    15A1     0.647447  
       2A2     0.658169    16A1     0.666587    17A1     0.696531  
       3A2     0.721676    10B2     0.722728     7B1     0.767697  
      18A1     0.792799    19A1     0.818742     8B1     0.837763  
      20A1     0.860938     9B1     0.901249    11B2     0.918626  
       4A2     0.924744    12B2     0.946305    13B2     0.979881  
      21A1     0.990004    10B1     1.012990    22A1     1.046433  
      14B2     1.051403    11B1     1.122191     5A2     1.176711  
      23A1     1.191658    15B2     1.199031    16B2     1.327264  
      24A1     1.336324    25A1     1.444501     6A2     1.507286  
      12B1     1.594262    26A1     1.666937    27A1     1.812349  
      17B2     1.821819    18B2     1.976899    28A1     2.040797  
      13B1     2.047847    19B2     2.054099     7A2     2.056936  
      14B1     2.058958    29A1     2.079159    30A1     2.114926  
       8A2     2.118779    20B2     2.135563    31A1     2.140526  
      15B1     2.145530    32A1     2.252213    21B2     2.267901  
      16B1     2.303301     9A2     2.311827    17B1     2.434493  
      33A1     2.470947    22B2     2.482155    34A1     2.486681  
      35A1     2.696003    18B1     2.716073    23B2     2.721050  
      36A1     2.840416    24B2     2.862250    10A2     2.880105  
      25B2     3.690978    37A1     3.753527    11A2     4.013086  
      19B1     4.079482    20B1     4.099359    38A1     4.140560  
      26B2     4.183410    27B2     4.281142    21B1     4.289751  
      39A1     4.351656    12A2     4.381744    40A1     4.427816  
      22B1     4.451340    28B2     4.515046    41A1     4.788880  
      29B2     4.839375    30B2     5.141048    13A2     5.144316  
      31B2     5.248336    42A1     5.339818    23B1     5.515868  
      43A1     5.684619    44A1     6.198258    24B1     6.389136  
      45A1     6.409145    14A2     6.410245    32B2     6.423670  
      25B1     6.435565    33B2     6.486264    46A1     6.536415  
      34B2     6.581842    26B1     6.716405    27B1     6.902484  
      47A1     6.905832    15A2     6.924574    48A1     6.940020  
      35B2     6.985801    49A1     7.046546    28B1     7.134937  
      29B1     7.278145    16A2     7.305870    36B2     7.309267  
      17A2     7.352382    50A1     7.437613    51A1     7.542419  
      52A1     7.909272    37B2     7.915219    38B2     8.804482  
      53A1     8.863040    54A1    15.772272  

    Beta Occupied:                                                        

       1A1   -20.605606     2A1   -20.570713     3A1    -1.354607  
       4A1    -1.051095     1B2    -0.718501     5A1    -0.588126  
       1B1    -0.513311     2B2    -0.495629  

    Beta Virtual:                                                         

       6A1     0.029397     3B2     0.047750     2B1     0.086540  
       7A1     0.091940     8A1     0.140981     9A1     0.167033  
       3B1     0.170629     4B2     0.180905     5B2     0.190553  
      10A1     0.225544     4B1     0.253306     1A2     0.263696  
       6B2     0.264553    11A1     0.288437    12A1     0.316774  
       5B1     0.328102     7B2     0.380517    13A1     0.386407  
      14A1     0.451048     8B2     0.464537     9B2     0.601649  
      15A1     0.660433     6B1     0.667469     2A2     0.672584  
      16A1     0.673690    17A1     0.713779     3A2     0.722144  
      10B2     0.734933     7B1     0.778997    18A1     0.806223  
       8B1     0.846928    19A1     0.850755     4A2     0.925135  
      20A1     0.928050    11B2     0.936391    12B2     0.953332  
      13B2     0.983643     9B1     0.986757    21A1     0.997154  
      14B2     1.052513    22A1     1.052637    10B1     1.060542  
      11B1     1.138330     5A2     1.176907    23A1     1.193144  
      15B2     1.201751    16B2     1.329667    24A1     1.392961  
      25A1     1.483728     6A2     1.507706    12B1     1.596234  
      26A1     1.697161    27A1     1.817404    17B2     1.822152  
      18B2     1.978303    28A1     2.070312    13B1     2.070856  
      19B2     2.071521     7A2     2.081581    29A1     2.099423  
      14B1     2.100447    30A1     2.155606    20B2     2.181429  
       8A2     2.201992    31A1     2.207874    15B1     2.258511  
      32A1     2.309183     9A2     2.311960    16B1     2.319050  
      21B2     2.319542    17B1     2.442431    33A1     2.483125  
      22B2     2.485029    34A1     2.516037    35A1     2.703338  
      18B1     2.717783    23B2     2.721953    36A1     2.852592  
      24B2     2.862425    10A2     2.880139    25B2     3.691855  
      37A1     3.753661    11A2     4.013114    19B1     4.081814  
      38A1     4.172751    26B2     4.218843    20B1     4.259717  
      27B2     4.292182    21B1     4.294451    12A2     4.381851  
      39A1     4.426385    22B1     4.456503    40A1     4.468595  
      28B2     4.515124    41A1     4.799741    29B2     4.839531  
      30B2     5.141229    13A2     5.144391    31B2     5.248749  
      42A1     5.340462    23B1     5.515979    43A1     5.689174  
      44A1     6.199897    24B1     6.485662    14A2     6.487074  
      32B2     6.487806    45A1     6.493266    25B1     6.499331  
      33B2     6.521809    46A1     6.608062    34B2     6.609869  
      26B1     6.723364    47A1     6.955709    15A2     7.038126  
      48A1     7.042012    27B1     7.085038    35B2     7.097660  
      28B1     7.135342    49A1     7.173923    29B1     7.282280  
      16A2     7.306139    36B2     7.309453    17A2     7.352797  
      50A1     7.440374    51A1     7.543495    52A1     7.909838  
      37B2     7.915569    38B2     8.804855    53A1     8.942434  
      54A1    15.772592  

    Final Occupation by Irrep:
             A1    A2    B1    B2 
    DOCC [     5,    0,    1,    2 ]
    SOCC [     1,    0,    1,    0 ]

  @UHF Final Energy:  -150.87352335750569

   => Energetics <=

    Nuclear Repulsion Energy =             23.8290002044928748
    One-Electron Energy =                -255.7238223796443890
    Two-Electron Energy =                  81.0212988176458282
    Total Energy =                       -150.8735233575056895

  UHF NO Occupations:
  HONO-2 :    5 A1 1.9970492
  HONO-1 :    2 B1 1.0000000
  HONO-0 :    6 A1 1.0000000
  LUNO+0 :    7 A1 0.0029508
  LUNO+1 :    3 B2 0.0017954
  LUNO+2 :    8 A1 0.0000219
  LUNO+3 :    9 A1 0.0000024


Computation Completed


Properties will be evaluated at   0.000000,   0.000000,   0.000000 [a0]

Properties computed using the SCF density matrix

  Nuclear Dipole Moment: [e a0]
     X:    -0.0000      Y:     0.0000      Z:     3.4824

  Electronic Dipole Moment: [e a0]
     X:     0.0000      Y:     0.0000      Z:    -2.6461

  Dipole Moment: [e a0]
     X:    -0.0000      Y:     0.0000      Z:     0.8363     Total:     0.8363

  Dipole Moment: [D]
     X:    -0.0000      Y:     0.0000      Z:     2.1257     Total:     2.1257


*** tstop() called on c2-1.compute.lan at Mon Mar  8 17:36:17 2021
Module time:
	user time   =      42.60 seconds =       0.71 minutes
	system time =       1.75 seconds =       0.03 minutes
	total time  =          4 seconds =       0.07 minutes
Total time:
	user time   =      42.60 seconds =       0.71 minutes
	system time =       1.75 seconds =       0.03 minutes
	total time  =          4 seconds =       0.07 minutes
 MINTS: Wrapper to libmints.
   by Justin Turney

   Calculation information:
      Number of threads:                12
      Number of atoms:                   4
      Number of AO shells:              46
      Number of SO shells:              37
      Number of primitives:             82
      Number of atomic orbitals:       160
      Number of basis functions:       138

      Number of irreps:                  4
      Integral cutoff                 0.00e+00
      Number of functions per irrep: [  54   17   29   38 ]

 OEINTS: Overlap, kinetic, potential, dipole, and quadrupole integrals
         stored in file 35.

      Computing two-electron integrals...done
      Computed 11521606 non-zero two-electron integrals.
        Stored in file 33.


*** tstart() called on c2-1.compute.lan
*** at Mon Mar  8 17:36:20 2021


	Wfn Parameters:
	--------------------
	Wavefunction         = CCSD_T
	Number of irreps     = 4
	Number of MOs        = 138
	Number of active MOs = 136
	AO-Basis             = NONE
	Semicanonical        = false
	Reference            = UHF
	Print Level          = 1

	IRREP	# MOs	# FZDC	# DOCC	# SOCC	# VIRT	# FZVR
	-----	-----	------	------	------	------	------
	 A1	   54	    2	    3	    1	    48	    0
	 A2	   17	    0	    0	    0	    17	    0
	 B1	   29	    0	    1	    1	    27	    0
	 B2	   38	    0	    2	    0	    36	    0
	Transforming integrals...
	IWL integrals will be deleted.
	(OO|OO)...
	Presorting SO-basis two-electron integrals.
	Sorting File: SO Ints (nn|nn) nbuckets = 1
	Transforming the one-electron integrals and constructing Fock matrices
	Starting AA/AB first half-transformation.
	Sorting AA/AB half-transformed integrals.
	Starting BB first half-transformation.
	Sorting BB half-transformed integrals.
	First half integral transformation complete.
	Starting AA second half-transformation.
	Starting AB second half-transformation.
	Starting BB second half-transformation.
	Two-electron integral transformation complete.
	(OO|OV)...
	Starting AA second half-transformation.
	Starting AB second half-transformation.
	Starting BB second half-transformation.
	Two-electron integral transformation complete.
	(OO|VV)...
	Starting AA second half-transformation.
	Starting AB second half-transformation.
	Starting BB second half-transformation.
	Two-electron integral transformation complete.
	(OV|OO)...
	Starting AA/AB first half-transformation.
	Sorting AA/AB half-transformed integrals.
	Starting BB first half-transformation.
	Sorting BB half-transformed integrals.
	First half integral transformation complete.
	Starting AA second half-transformation.
	Starting AB second half-transformation.
	Starting BB second half-transformation.
	Two-electron integral transformation complete.
	(OV|OV)...
	Starting AA second half-transformation.
	Starting AB second half-transformation.
	Starting BB second half-transformation.
	Two-electron integral transformation complete.
	(OV|VV)...
	Starting AA second half-transformation.
	Starting AB second half-transformation.
	Starting BB second half-transformation.
	Two-electron integral transformation complete.
	(VV|OO)...
	Starting AA/AB first half-transformation.
	Sorting AA/AB half-transformed integrals.
	Starting BB first half-transformation.
	Sorting BB half-transformed integrals.
	First half integral transformation complete.
	Starting AA second half-transformation.
	Starting AB second half-transformation.
	Starting BB second half-transformation.
	Two-electron integral transformation complete.
	(VV|OV)...
	Starting AA second half-transformation.
	Starting AB second half-transformation.
	Starting BB second half-transformation.
	Two-electron integral transformation complete.
	(VV|VV)...
	Starting AA second half-transformation.
	Starting AB second half-transformation.
	Starting BB second half-transformation.
	Two-electron integral transformation complete.
	Frozen core energy     =   -126.37190182311163

	Size of irrep 0 of <AB|CD> integrals:      5.040 (MW) /     40.320 (MB)
	Size of irrep 1 of <AB|CD> integrals:      3.197 (MW) /     25.576 (MB)
	Size of irrep 2 of <AB|CD> integrals:      3.640 (MW) /     29.124 (MB)
	Size of irrep 3 of <AB|CD> integrals:      4.783 (MW) /     38.264 (MB)
	Total:                                    16.660 (MW) /    133.283 (MB)

	Size of irrep 0 of <ab|cd> integrals:      5.382 (MW) /     43.059 (MB)
	Size of irrep 1 of <ab|cd> integrals:      3.389 (MW) /     27.114 (MB)
	Size of irrep 2 of <ab|cd> integrals:      3.936 (MW) /     31.490 (MB)
	Size of irrep 3 of <ab|cd> integrals:      5.018 (MW) /     40.141 (MB)
	Total:                                    17.726 (MW) /    141.804 (MB)

	Size of irrep 0 of <Ab|Cd> integrals:     22.024 (MW) /    176.194 (MB)
	Size of irrep 1 of <Ab|Cd> integrals:     13.170 (MW) /    105.357 (MB)
	Size of irrep 2 of <Ab|Cd> integrals:     15.140 (MW) /    121.119 (MB)
	Size of irrep 3 of <Ab|Cd> integrals:     19.598 (MW) /    156.787 (MB)
	Total:                                    69.932 (MW) /    559.457 (MB)

	Size of irrep 0 of <IA|BC> integrals:      1.469 (MW) /     11.748 (MB)
	Size of irrep 1 of <IA|BC> integrals:      0.694 (MW) /      5.550 (MB)
	Size of irrep 2 of <IA|BC> integrals:      0.908 (MW) /      7.266 (MB)
	Size of irrep 3 of <IA|BC> integrals:      1.198 (MW) /      9.588 (MB)
	Total:                                     4.269 (MW) /     34.152 (MB)

	Size of irrep 0 of <ia|bc> integrals:      1.178 (MW) /      9.426 (MB)
	Size of irrep 1 of <ia|bc> integrals:      0.527 (MW) /      4.212 (MB)
	Size of irrep 2 of <ia|bc> integrals:      0.663 (MW) /      5.301 (MB)
	Size of irrep 3 of <ia|bc> integrals:      0.999 (MW) /      7.992 (MB)
	Total:                                     3.366 (MW) /     26.931 (MB)

	Size of irrep 0 of <Ia|Bc> integrals:      1.521 (MW) /     12.164 (MB)
	Size of irrep 1 of <Ia|Bc> integrals:      0.711 (MW) /      5.690 (MB)
	Size of irrep 2 of <Ia|Bc> integrals:      0.949 (MW) /      7.595 (MB)
	Size of irrep 3 of <Ia|Bc> integrals:      1.222 (MW) /      9.775 (MB)
	Total:                                     4.403 (MW) /     35.225 (MB)

	Size of irrep 0 of <iA|bC> integrals:      1.140 (MW) /      9.123 (MB)
	Size of irrep 1 of <iA|bC> integrals:      0.512 (MW) /      4.094 (MB)
	Size of irrep 2 of <iA|bC> integrals:      0.634 (MW) /      5.074 (MB)
	Size of irrep 3 of <iA|bC> integrals:      0.978 (MW) /      7.827 (MB)
	Total:                                     3.265 (MW) /     26.118 (MB)

	Size of irrep 0 of tIjAb amplitudes:       0.084 (MW) /      0.676 (MB)
	Size of irrep 1 of tIjAb amplitudes:       0.022 (MW) /      0.174 (MB)
	Size of irrep 2 of tIjAb amplitudes:       0.039 (MW) /      0.311 (MB)
	Size of irrep 3 of tIjAb amplitudes:       0.062 (MW) /      0.496 (MB)
	Total:                                     0.207 (MW) /      1.657 (MB)

	Nuclear Rep. energy          =     23.82900020449287
	SCF energy                   =   -150.87352335750569
	One-electron energy          =    -85.41199042540944
	Two-electron (AA) energy     =     10.36449900566192
	Two-electron (BB) energy     =      5.46714305263603
	Two-electron (AB) energy     =     21.24972662822340
	Two-electron energy          =     37.08136868652134
	Reference energy             =   -150.87352335750685

*** tstop() called on c2-1.compute.lan at Mon Mar  8 17:36:41 2021
Module time:
	user time   =      86.63 seconds =       1.44 minutes
	system time =      12.27 seconds =       0.20 minutes
	total time  =         21 seconds =       0.35 minutes
Total time:
	user time   =     135.09 seconds =       2.25 minutes
	system time =      14.57 seconds =       0.24 minutes
	total time  =         28 seconds =       0.47 minutes
            **************************
            *                        *
            *        CCENERGY        *
            *                        *
            **************************

    Nuclear Rep. energy (wfn)     =   23.829000204492875
    SCF energy          (wfn)     = -150.873523357505690
    Reference energy    (file100) = -150.873523357506855

    Input parameters:
    -----------------
    Wave function   =     CCSD_T
    Reference wfn   =     UHF
    Brueckner       =     No
    Memory (Mbytes) =     4000.0
    Maxiter         =     50
    R_Convergence   =     1.0e-10
    E_Convergence   =     1.0e-10
    Restart         =     Yes
    DIIS            =     Yes
    AO Basis        =     NONE
    ABCD            =     NEW
    Cache Level     =     2
    Cache Type      =     LRU
    Print Level     =     1
    Num. of threads =     12
    # Amps to Print =     10
    Print MP2 Amps? =     No
    Analyze T2 Amps =     No
    Print Pair Ener =     No
    Local CC        =     No
    SCS-MP2         =     False
    SCSN-MP2        =     False
    SCS-CCSD        =     False

MP2 correlation energy -0.4162736616899119
                Solving CC Amplitude Equations
                ------------------------------
  Iter             Energy              RMS        T1Diag      D1Diag    New D1Diag    D2Diag
  ----     ---------------------    ---------   ----------  ----------  ----------   --------
     0        -0.416273661689912    0.000e+00    0.000000    0.000000    0.000000    0.000000
     1        -0.427055453139768    5.698e-02    0.010580    0.000000    0.000000    0.000000
     2        -0.435152118122299    1.703e-02    0.011075    0.000000    0.000000    0.000000
     3        -0.437303641090430    8.775e-03    0.012997    0.000000    0.000000    0.000000
     4        -0.437177189222408    2.682e-03    0.013407    0.000000    0.000000    0.000000
     5        -0.437167703373829    1.395e-03    0.013600    0.000000    0.000000    0.000000
     6        -0.437196803347101    5.297e-04    0.013626    0.000000    0.000000    0.000000
     7        -0.437199779237348    2.147e-04    0.013620    0.000000    0.000000    0.000000
     8        -0.437200716140707    6.677e-05    0.013615    0.000000    0.000000    0.000000
     9        -0.437201402582244    2.387e-05    0.013615    0.000000    0.000000    0.000000
    10        -0.437200502160354    9.221e-06    0.013615    0.000000    0.000000    0.000000
    11        -0.437200667684370    4.005e-06    0.013614    0.000000    0.000000    0.000000
    12        -0.437200627982969    1.449e-06    0.013615    0.000000    0.000000    0.000000
    13        -0.437200635957072    7.323e-07    0.013615    0.000000    0.000000    0.000000
    14        -0.437200658598744    3.057e-07    0.013615    0.000000    0.000000    0.000000
    15        -0.437200660289760    1.113e-07    0.013615    0.000000    0.000000    0.000000
    16        -0.437200660868864    4.998e-08    0.013615    0.000000    0.000000    0.000000
    17        -0.437200661444179    1.923e-08    0.013615    0.000000    0.000000    0.000000
    18        -0.437200661299828    1.003e-08    0.013615    0.000000    0.000000    0.000000
    19        -0.437200661089007    3.951e-09    0.013615    0.000000    0.000000    0.000000
    20        -0.437200661078067    2.132e-09    0.013615    0.000000    0.000000    0.000000
    21        -0.437200661054785    8.138e-10    0.013615    0.000000    0.000000    0.000000
    22        -0.437200661053294    3.269e-10    0.013615    0.000000    0.000000    0.000000
    23        -0.437200661052381    1.699e-10    0.013615    0.000000    0.000000    0.000000
    24        -0.437200661052216    6.970e-11    0.013615    0.000000    0.000000    0.000000

    Iterations converged.


    Largest TIA Amplitudes:
              5  65        -0.0133388480
              5  67        -0.0111729898
              7  94         0.0103862315
              5  66        -0.0097085396
              4  65        -0.0074650357
              3   1         0.0074165025
              2   3         0.0072101166
              4  66         0.0071637305
              3   5        -0.0055874774
              3   6         0.0053995530

    Largest Tia Amplitudes:
              3  67        -0.0148253495
              2   2         0.0134590714
              3  69        -0.0107859264
              5  96         0.0079670276
              3  66        -0.0076965788
              2   1        -0.0068344215
              2   7         0.0056215226
              2   6        -0.0055615988
              1  25        -0.0054373836
              4 109         0.0053906232

    Largest TIJAB Amplitudes:
      7   4 100  71         0.0142676247
      7   4  55  23        -0.0135901332
      7   2 100  12        -0.0121138586
      4   2  71  12         0.0109998515
      6   5  50   9        -0.0086502665
      7   4  49  23         0.0082525812
      6   5  97  72        -0.0080857580
      7   4  94  71         0.0078553614
      7   4  55   8        -0.0076290736
      7   4 100  82        -0.0073791251

    Largest Tijab Amplitudes:
      5   1  66  56         0.0086739921
      5   1  66  50        -0.0085702051
      5   1  68  56         0.0081620152
      4   3  99  67        -0.0076475289
      5   1  68  50        -0.0074572719
      4   3  99  73        -0.0073142989
      4   2  99   2         0.0071849467
      4   2  99  12         0.0068706744
      4   2 100   9        -0.0067312186
      4   3  51  10        -0.0065411700

    Largest TIjAb Amplitudes:
      7   5 100 103        -0.0218365215
      6   4  97  99        -0.0218150601
      7   5 100 102         0.0188660754
      7   1  55  66        -0.0180600139
      7   5 100  96        -0.0170739202
      7   1  55  68        -0.0168456063
      4   1  23  66        -0.0167213431
      5   3  72  73        -0.0162527656
      4   1  23  68        -0.0155559948
      7   5  55  56        -0.0145628785

    SCF energy       (wfn)                    = -150.873523357505690
    Reference energy (file100)                = -150.873523357506855

    Opposite-spin MP2 correlation energy      =   -0.314430907328227
    Same-spin MP2 correlation energy          =   -0.101842754361685
    MP2 correlation energy                    =   -0.416273661689912
      * MP2 total energy                      = -151.289797019196754

    Opposite-spin CCSD correlation energy     =   -0.342090054998409
    Same-spin CCSD correlation energy         =   -0.095110606053808
    CCSD correlation energy                   =   -0.437200661052216
      * CCSD total energy                     = -151.310724018559085

            **************************
            *                        *
            *        CCTRIPLES       *
            *                        *
            **************************


    Wave function   =    CCSD_T
    Reference wfn   =      UHF

    Nuclear Rep. energy (wfn)                =   23.829000204492875
    SCF energy          (wfn)                = -150.873523357505690
    Reference energy    (file100)            = -150.873523357506855
    CCSD energy         (file100)            =   -0.437200661052216
    Total CCSD energy   (file100)            = -151.310724018559085

    Number of ijk index combinations:
    Spin Case AAA:                                  56
    Spin Case BBB:                                  20
    Spin Case AAB:                                 168
    Spin Case ABB:                                 120
    AAA (T) energy                             =   -0.000395758222173
    BBB (T) energy                             =   -0.000202187131977
    AAB (T) energy                             =   -0.006710014816725
    ABB (T) energy                             =   -0.004985277491086
    (T) energy                                   =   -0.012293237661961
      * CCSD(T) total energy                     = -151.323017256221021

Stephenergy -151.32301725622102
    Psi4 stopped on: Monday, 08 March 2021 05:37PM
    Psi4 wall time for execution: 0:01:18.87

*** Psi4 exiting successfully. Buy a developer a beer!
