
    -----------------------------------------------------------------------
          Psi4: An Open-Source Ab Initio Electronic Structure Package
                               Psi4 1.4a2.dev191 

                         Git: Rev {master} 0ab5346 


    R. M. Parrish, L. A. Burns, D. G. A. Smith, A. C. Simmonett,
    A. E. DePrince III, E. G. Hohenstein, U. Bozkaya, A. Yu. Sokolov,
    R. Di Remigio, R. M. Richard, J. F. Gonthier, A. M. James,
    H. R. McAlexander, A. Kumar, M. Saitow, X. Wang, B. P. Pritchard,
    P. Verma, H. F. Schaefer III, K. Patkowski, R. A. King, E. F. Valeev,
    F. A. Evangelista, J. M. Turney, T. D. Crawford, and C. D. Sherrill,
    J. Chem. Theory Comput. 13(7) pp 3185--3197 (2017).
    (doi: 10.1021/acs.jctc.7b00174)


                         Additional Contributions by
    P. Kraus, H. Kruse, M. H. Lechner, M. C. Schieber, R. A. Shaw,
    A. Alenaizan, R. Galvelis, Z. L. Glick, S. Lehtola, and J. P. Misiewicz

    -----------------------------------------------------------------------


    Psi4 started on: Tuesday, 23 February 2021 01:38PM

    Process ID: 7109
    Host:       c1-17.compute.lan
    PSIDATADIR: /apps/gb/PSI4/1.4.0/share/psi4
    Memory:     500.0 MiB
    Threads:    1
    
  ==> Input File <==

--------------------------------------------------------------------------
memory 10 GB
molecule {
0 2
O
H 1 R1
R1 = 0.9478992047
}
set {
basis aug-cc-pvdz
e_convergence 10
g_convergence gau_verytight
reference uhf
scf_type pk
mp2_type conv
}

set ccenergy {
e_convergence 10
r_convergence 10
}

optimize("ccsd(t)")

--------------------------------------------------------------------------

  Memory set to   9.313 GiB by Python driver.
gradient() will perform analytic gradient computation.

*** tstart() called on c1-17.compute.lan
*** at Tue Feb 23 13:38:04 2021

   => Loading Basis Set <=

    Name: AUG-CC-PVDZ
    Role: ORBITAL
    Keyword: BASIS
    atoms 1 entry O          line   254 file /apps/gb/PSI4/1.4.0/share/psi4/basis/aug-cc-pvdz.gbs 
    atoms 2 entry H          line    40 file /apps/gb/PSI4/1.4.0/share/psi4/basis/aug-cc-pvdz.gbs 


         ---------------------------------------------------------
                                   SCF
               by Justin Turney, Rob Parrish, Andy Simmonett
                          and Daniel G. A. Smith
                              UHF Reference
                        1 Threads,   9536 MiB Core
         ---------------------------------------------------------

  ==> Geometry <==

    Molecular point group: c2v
    Full point group: C_inf_v

    Geometry (in Angstrom), charge = 0, multiplicity = 2:

       Center              X                  Y                   Z               Mass       
    ------------   -----------------  -----------------  -----------------  -----------------
         O            0.000000000000     0.000000000000    -0.056186036256    15.994914619570
         H            0.000000000000     0.000000000000     0.891713168444     1.007825032230

  Running in c2v symmetry.

  Rotational constants: A = ************  B =     19.78901  C =     19.78901 [cm^-1]
  Rotational constants: A = ************  B = 593259.52428  C = 593259.52428 [MHz]
  Nuclear repulsion =    4.466105324668810

  Charge       = 0
  Multiplicity = 2
  Electrons    = 9
  Nalpha       = 5
  Nbeta        = 4

  ==> Algorithm <==

  SCF Algorithm Type is PK.
  DIIS enabled.
  MOM disabled.
  Fractional occupation disabled.
  Guess Type is SAD.
  Energy threshold   = 1.00e-10
  Density threshold  = 1.00e-10
  Integral threshold = 0.00e+00

  ==> Primary Basis <==

  Basis Set: AUG-CC-PVDZ
    Blend: AUG-CC-PVDZ
    Number of shells: 14
    Number of basis function: 32
    Number of Cartesian functions: 34
    Spherical Harmonics?: true
    Max angular momentum: 2

  ==> Pre-Iterations <==

   -------------------------------------------------------
    Irrep   Nso     Nmo     Nalpha   Nbeta   Ndocc  Nsocc
   -------------------------------------------------------
     A1        16      16       0       0       0       0
     A2         2       2       0       0       0       0
     B1         7       7       0       0       0       0
     B2         7       7       0       0       0       0
   -------------------------------------------------------
    Total      32      32       5       4       4       1
   -------------------------------------------------------

  ==> Integral Setup <==

  Using in-core PK algorithm.
   Calculation information:
      Number of atoms:                   2
      Number of AO shells:              14
      Number of primitives:             32
      Number of atomic orbitals:        34
      Number of basis functions:        32

      Integral cutoff                 1.00e-12
      Number of threads:                 1

  Performing in-core PK
  Using 279312 doubles for integral storage.
  We computed 5565 shell quartets total.
  Whereas there are 5565 unique shell quartets.

  ==> DiskJK: Disk-Based J/K Matrices <==

    J tasked:                  Yes
    K tasked:                  Yes
    wK tasked:                  No
    Memory [MiB]:             7152
    Schwarz Cutoff:          1E-12

    OpenMP threads:              1

  Minimum eigenvalue in the overlap matrix is 3.2729941475E-03.
  Using Symmetric Orthogonalization.

  SCF Guess: Superposition of Atomic Densities via on-the-fly atomic UHF.

  ==> Iterations <==

                        Total Energy        Delta E     RMS |[F,P]|

   @UHF iter SAD:   -74.64871607335925   -7.46487e+01   0.00000e+00 
   @UHF iter   1:   -75.38150619371561   -7.32790e-01   1.11813e-02 DIIS
   @UHF iter   2:   -75.40081837616233   -1.93122e-02   4.16365e-03 DIIS
   @UHF iter   3:   -75.40333881770701   -2.52044e-03   1.20954e-03 DIIS
   @UHF iter   4:   -75.40373646200490   -3.97644e-04   3.97463e-04 DIIS
   @UHF iter   5:   -75.40380444451566   -6.79825e-05   1.70884e-04 DIIS
   @UHF iter   6:   -75.40382178519022   -1.73407e-05   5.57764e-05 DIIS
   @UHF iter   7:   -75.40382402164747   -2.23646e-06   1.58291e-05 DIIS
   @UHF iter   8:   -75.40382419149671   -1.69849e-07   3.72310e-06 DIIS
   @UHF iter   9:   -75.40382419904537   -7.54866e-09   1.01431e-06 DIIS
   @UHF iter  10:   -75.40382419966025   -6.14875e-10   1.52038e-07 DIIS
   @UHF iter  11:   -75.40382419967203   -1.17808e-11   1.82179e-08 DIIS
   @UHF iter  12:   -75.40382419967221   -1.84741e-13   4.85718e-09 DIIS
   @UHF iter  13:   -75.40382419967224   -2.84217e-14   1.11005e-09 DIIS
   @UHF iter  14:   -75.40382419967221    2.84217e-14   2.17753e-10 DIIS
   @UHF iter  15:   -75.40382419967221    0.00000e+00   3.54770e-11 DIIS
  Energy and wave function converged.


  ==> Post-Iterations <==

   @Spin Contamination Metric:   6.284287007E-03
   @S^2 Expected:                7.500000000E-01
   @S^2 Observed:                7.562842870E-01
   @S   Expected:                5.000000000E-01
   @S   Observed:                5.000000000E-01

    Orbital Energies [Eh]
    ---------------------

    Alpha Occupied:                                                       

       1A1   -20.649677     2A1    -1.399661     3A1    -0.690582  
       1B2    -0.658019     1B1    -0.562559  

    Alpha Virtual:                                                        

       4A1     0.036049     5A1     0.177925     2B2     0.184671  
       2B1     0.197475     6A1     0.227519     7A1     0.320862  
       3B2     0.388944     3B1     0.399514     8A1     0.630975  
       9A1     0.849102     1A2     0.955602    10A1     0.957538  
       4B2     1.086194     4B1     1.116823    11A1     1.318808  
       5B2     1.332699     5B1     1.391507    12A1     1.672731  
       6B2     2.026073     6B1     2.044521    13A1     2.538446  
      14A1     2.764824     2A2     3.483263    15A1     3.483362  
       7B2     3.596448     7B1     3.656629    16A1     4.135199  

    Beta Occupied:                                                        

       1A1   -20.608990     2A1    -1.243286     3A1    -0.645812  
       1B1    -0.513110  

    Beta Virtual:                                                         

       4A1     0.037436     1B2     0.063815     5A1     0.180986  
       2B1     0.200865     6A1     0.234426     2B2     0.256352  
       7A1     0.325873     3B1     0.399318     3B2     0.413052  
       8A1     0.645583     9A1     0.860841     1A2     0.994323  
      10A1     0.995472     4B1     1.119131     4B2     1.132527  
      11A1     1.333870     5B1     1.414561     5B2     1.502082  
      12A1     1.695229     6B2     2.035306     6B1     2.041636  
      13A1     2.571909    14A1     2.780361     2A2     3.583454  
      15A1     3.584198     7B1     3.674913     7B2     3.692566  
      16A1     4.168149  

    Final Occupation by Irrep:
             A1    A2    B1    B2 
    DOCC [     3,    0,    1,    0 ]
    SOCC [     0,    0,    0,    1 ]

  @UHF Final Energy:   -75.40382419967221

   => Energetics <=

    Nuclear Repulsion Energy =              4.4661053246688098
    One-Electron Energy =                -112.7681629268980430
    Two-Electron Energy =                  32.8982334025570111
    Total Energy =                        -75.4038241996722292

  UHF NO Occupations:
  HONO-2 :    2 A1 1.9993524
  HONO-1 :    3 A1 1.9980512
  HONO-0 :    1 B2 1.0000000
  LUNO+0 :    4 A1 0.0019488
  LUNO+1 :    5 A1 0.0006476
  LUNO+2 :    2 B1 0.0005476
  LUNO+3 :    6 A1 0.0000004


Computation Completed


Properties will be evaluated at   0.000000,   0.000000,   0.000000 [a0]

Properties computed using the SCF density matrix

  Nuclear Dipole Moment: [e a0]
     X:     0.0000      Y:     0.0000      Z:     0.8357

  Electronic Dipole Moment: [e a0]
     X:     0.0000      Y:     0.0000      Z:    -0.1458

  Dipole Moment: [e a0]
     X:     0.0000      Y:     0.0000      Z:     0.6899     Total:     0.6899

  Dipole Moment: [D]
     X:     0.0000      Y:     0.0000      Z:     1.7535     Total:     1.7535


*** tstop() called on c1-17.compute.lan at Tue Feb 23 13:38:05 2021
Module time:
	user time   =       0.66 seconds =       0.01 minutes
	system time =       0.04 seconds =       0.00 minutes
	total time  =          1 seconds =       0.02 minutes
Total time:
	user time   =       0.66 seconds =       0.01 minutes
	system time =       0.04 seconds =       0.00 minutes
	total time  =          1 seconds =       0.02 minutes
 MINTS: Wrapper to libmints.
   by Justin Turney

   Calculation information:
      Number of threads:                 1
      Number of atoms:                   2
      Number of AO shells:              14
      Number of SO shells:              14
      Number of primitives:             32
      Number of atomic orbitals:        34
      Number of basis functions:        32

      Number of irreps:                  4
      Integral cutoff                 0.00e+00
      Number of functions per irrep: [  16    2    7    7 ]

 OEINTS: Overlap, kinetic, potential, dipole, and quadrupole integrals
         stored in file 35.

      Computing two-electron integrals...done
      Computed 33337 non-zero two-electron integrals.
        Stored in file 33.


*** tstart() called on c1-17.compute.lan
*** at Tue Feb 23 13:38:05 2021


	Wfn Parameters:
	--------------------
	Wavefunction         = CCSD_T
	Number of irreps     = 4
	Number of MOs        = 32
	Number of active MOs = 32
	AO-Basis             = NONE
	Semicanonical        = false
	Reference            = UHF
	Print Level          = 1

	IRREP	# MOs	# FZDC	# DOCC	# SOCC	# VIRT	# FZVR
	-----	-----	------	------	------	------	------
	 A1	   16	    0	    3	    0	    13	    0
	 A2	   2	    0	    0	    0	    2	    0
	 B1	   7	    0	    1	    0	    6	    0
	 B2	   7	    0	    0	    1	    6	    0
	Transforming integrals...
	IWL integrals will be deleted.
	(OO|OO)...
	Presorting SO-basis two-electron integrals.
	Sorting File: SO Ints (nn|nn) nbuckets = 1
	Transforming the one-electron integrals and constructing Fock matrices
	Starting AA/AB first half-transformation.
	Sorting AA/AB half-transformed integrals.
	Starting BB first half-transformation.
	Sorting BB half-transformed integrals.
	First half integral transformation complete.
	Starting AA second half-transformation.
	Starting AB second half-transformation.
	Starting BB second half-transformation.
	Two-electron integral transformation complete.
	(OO|OV)...
	Starting AA second half-transformation.
	Starting AB second half-transformation.
	Starting BB second half-transformation.
	Two-electron integral transformation complete.
	(OO|VV)...
	Starting AA second half-transformation.
	Starting AB second half-transformation.
	Starting BB second half-transformation.
	Two-electron integral transformation complete.
	(OV|OO)...
	Starting AA/AB first half-transformation.
	Sorting AA/AB half-transformed integrals.
	Starting BB first half-transformation.
	Sorting BB half-transformed integrals.
	First half integral transformation complete.
	Starting AA second half-transformation.
	Starting AB second half-transformation.
	Starting BB second half-transformation.
	Two-electron integral transformation complete.
	(OV|OV)...
	Starting AA second half-transformation.
	Starting AB second half-transformation.
	Starting BB second half-transformation.
	Two-electron integral transformation complete.
	(OV|VV)...
	Starting AA second half-transformation.
	Starting AB second half-transformation.
	Starting BB second half-transformation.
	Two-electron integral transformation complete.
	(VV|OO)...
	Starting AA/AB first half-transformation.
	Sorting AA/AB half-transformed integrals.
	Starting BB first half-transformation.
	Sorting BB half-transformed integrals.
	First half integral transformation complete.
	Starting AA second half-transformation.
	Starting AB second half-transformation.
	Starting BB second half-transformation.
	Two-electron integral transformation complete.
	(VV|OV)...
	Starting AA second half-transformation.
	Starting AB second half-transformation.
	Starting BB second half-transformation.
	Two-electron integral transformation complete.
	(VV|VV)...
	Starting AA second half-transformation.
	Starting AB second half-transformation.
	Starting BB second half-transformation.
	Two-electron integral transformation complete.
	Frozen core energy     =      0.00000000000000

	Size of irrep 0 of <AB|CD> integrals:      0.012 (MW) /      0.095 (MB)
	Size of irrep 1 of <AB|CD> integrals:      0.004 (MW) /      0.031 (MB)
	Size of irrep 2 of <AB|CD> integrals:      0.008 (MW) /      0.065 (MB)
	Size of irrep 3 of <AB|CD> integrals:      0.008 (MW) /      0.065 (MB)
	Total:                                     0.032 (MW) /      0.255 (MB)

	Size of irrep 0 of <ab|cd> integrals:      0.013 (MW) /      0.106 (MB)
	Size of irrep 1 of <ab|cd> integrals:      0.005 (MW) /      0.037 (MB)
	Size of irrep 2 of <ab|cd> integrals:      0.008 (MW) /      0.068 (MB)
	Size of irrep 3 of <ab|cd> integrals:      0.011 (MW) /      0.085 (MB)
	Total:                                     0.037 (MW) /      0.295 (MB)

	Size of irrep 0 of <Ab|Cd> integrals:      0.063 (MW) /      0.504 (MB)
	Size of irrep 1 of <Ab|Cd> integrals:      0.017 (MW) /      0.135 (MB)
	Size of irrep 2 of <Ab|Cd> integrals:      0.033 (MW) /      0.265 (MB)
	Size of irrep 3 of <Ab|Cd> integrals:      0.037 (MW) /      0.298 (MB)
	Total:                                     0.150 (MW) /      1.202 (MB)

	Size of irrep 0 of <IA|BC> integrals:      0.012 (MW) /      0.100 (MB)
	Size of irrep 1 of <IA|BC> integrals:      0.002 (MW) /      0.018 (MB)
	Size of irrep 2 of <IA|BC> integrals:      0.006 (MW) /      0.048 (MB)
	Size of irrep 3 of <IA|BC> integrals:      0.006 (MW) /      0.048 (MB)
	Total:                                     0.027 (MW) /      0.213 (MB)

	Size of irrep 0 of <ia|bc> integrals:      0.012 (MW) /      0.093 (MB)
	Size of irrep 1 of <ia|bc> integrals:      0.002 (MW) /      0.014 (MB)
	Size of irrep 2 of <ia|bc> integrals:      0.006 (MW) /      0.046 (MB)
	Size of irrep 3 of <ia|bc> integrals:      0.005 (MW) /      0.038 (MB)
	Total:                                     0.024 (MW) /      0.191 (MB)

	Size of irrep 0 of <Ia|Bc> integrals:      0.013 (MW) /      0.104 (MB)
	Size of irrep 1 of <Ia|Bc> integrals:      0.002 (MW) /      0.020 (MB)
	Size of irrep 2 of <Ia|Bc> integrals:      0.006 (MW) /      0.048 (MB)
	Size of irrep 3 of <Ia|Bc> integrals:      0.007 (MW) /      0.056 (MB)
	Total:                                     0.028 (MW) /      0.228 (MB)

	Size of irrep 0 of <iA|bC> integrals:      0.011 (MW) /      0.090 (MB)
	Size of irrep 1 of <iA|bC> integrals:      0.002 (MW) /      0.012 (MB)
	Size of irrep 2 of <iA|bC> integrals:      0.006 (MW) /      0.045 (MB)
	Size of irrep 3 of <iA|bC> integrals:      0.004 (MW) /      0.031 (MB)
	Total:                                     0.022 (MW) /      0.179 (MB)

	Size of irrep 0 of tIjAb amplitudes:       0.003 (MW) /      0.020 (MB)
	Size of irrep 1 of tIjAb amplitudes:       0.000 (MW) /      0.001 (MB)
	Size of irrep 2 of tIjAb amplitudes:       0.001 (MW) /      0.009 (MB)
	Size of irrep 3 of tIjAb amplitudes:       0.001 (MW) /      0.005 (MB)
	Total:                                     0.004 (MW) /      0.034 (MB)

	Nuclear Rep. energy          =      4.46610532466881
	SCF energy                   =    -75.40382419967221
	One-electron energy          =   -112.76816292763934
	Two-electron (AA) energy     =      7.74649949985832
	Two-electron (BB) energy     =      4.64147932711676
	Two-electron (AB) energy     =     20.51025457632324
	Two-electron energy          =     32.89823340329832
	Reference energy             =    -75.40382419967221

*** tstop() called on c1-17.compute.lan at Tue Feb 23 13:38:06 2021
Module time:
	user time   =       0.10 seconds =       0.00 minutes
	system time =       0.13 seconds =       0.00 minutes
	total time  =          1 seconds =       0.02 minutes
Total time:
	user time   =       0.81 seconds =       0.01 minutes
	system time =       0.18 seconds =       0.00 minutes
	total time  =          2 seconds =       0.03 minutes
            **************************
            *                        *
            *        CCENERGY        *
            *                        *
            **************************

    Nuclear Rep. energy (wfn)     =    4.466105324668810
    SCF energy          (wfn)     =  -75.403824199672215
    Reference energy    (file100) =  -75.403824199672215

    Input parameters:
    -----------------
    Wave function   =     CCSD_T
    Reference wfn   =     UHF
    Brueckner       =     No
    Memory (Mbytes) =     10000.0
    Maxiter         =     50
    R_Convergence   =     1.0e-10
    E_Convergence   =     1.0e-10
    Restart         =     Yes
    DIIS            =     Yes
    AO Basis        =     NONE
    ABCD            =     NEW
    Cache Level     =     2
    Cache Type      =     LRU
    Print Level     =     1
    Num. of threads =     1
    # Amps to Print =     10
    Print MP2 Amps? =     No
    Analyze T2 Amps =     No
    Print Pair Ener =     No
    Local CC        =     No
    SCS-MP2         =     False
    SCSN-MP2        =     False
    SCS-CCSD        =     False

MP2 correlation energy -0.1632040948823923
                Solving CC Amplitude Equations
                ------------------------------
  Iter             Energy              RMS        T1Diag      D1Diag    New D1Diag    D2Diag
  ----     ---------------------    ---------   ----------  ----------  ----------   --------
     0        -0.163204094882392    0.000e+00    0.000000    0.000000    0.000000    0.000000
     1        -0.173204826818733    4.218e-02    0.011028    0.000000    0.000000    0.000000
     2        -0.176929360538467    1.291e-02    0.012531    0.000000    0.000000    0.000000
     3        -0.177987330656178    6.578e-03    0.014559    0.000000    0.000000    0.000000
     4        -0.177966978554211    2.206e-03    0.014929    0.000000    0.000000    0.000000
     5        -0.177972299425108    8.898e-04    0.014928    0.000000    0.000000    0.000000
     6        -0.177994388614297    3.320e-04    0.014911    0.000000    0.000000    0.000000
     7        -0.177996437388728    9.236e-05    0.014898    0.000000    0.000000    0.000000
     8        -0.177996305616341    2.914e-05    0.014897    0.000000    0.000000    0.000000
     9        -0.177996183948542    1.175e-05    0.014897    0.000000    0.000000    0.000000
    10        -0.177996163638023    4.693e-06    0.014897    0.000000    0.000000    0.000000
    11        -0.177996182165981    1.546e-06    0.014898    0.000000    0.000000    0.000000
    12        -0.177996208512882    5.344e-07    0.014898    0.000000    0.000000    0.000000
    13        -0.177996214124036    2.098e-07    0.014898    0.000000    0.000000    0.000000
    14        -0.177996216430604    8.761e-08    0.014898    0.000000    0.000000    0.000000
    15        -0.177996216676419    3.749e-08    0.014898    0.000000    0.000000    0.000000
    16        -0.177996216986987    1.775e-08    0.014898    0.000000    0.000000    0.000000
    17        -0.177996217116008    7.261e-09    0.014898    0.000000    0.000000    0.000000
    18        -0.177996217208592    3.092e-09    0.014898    0.000000    0.000000    0.000000
    19        -0.177996217260557    1.352e-09    0.014898    0.000000    0.000000    0.000000
    20        -0.177996217281610    5.809e-10    0.014898    0.000000    0.000000    0.000000
    21        -0.177996217285640    2.190e-10    0.014898    0.000000    0.000000    0.000000
    22        -0.177996217284787    8.484e-11    0.014898    0.000000    0.000000    0.000000

    Iterations converged.


    Largest TIA Amplitudes:
              3  15        -0.0198550572
              4  21        -0.0177673194
              3  16        -0.0114970586
              4  22        -0.0105986551
              2   3         0.0092662529
              2   1         0.0081830238
              1   2        -0.0064178804
              2   9        -0.0045949018
              4  24        -0.0038949902
              3  18        -0.0032822380

    Largest Tia Amplitudes:
              3  15        -0.0180374782
              3  16        -0.0112569446
              2   3         0.0078569540
              2   1         0.0057223419
              1   6        -0.0055326359
              1   3        -0.0052118811
              1   9        -0.0048478853
              2   9        -0.0046384837
              1   5        -0.0040161080
              1  11        -0.0035533734

    Largest TIJAB Amplitudes:
      4   3  24  18        -0.0205989105
      4   3  13   6         0.0156528890
      4   2  24   7         0.0139159050
      3   2  18   7         0.0134461581
      4   2  23   5        -0.0118603337
      4   3  24  15        -0.0116738792
      4   3  14  11         0.0116459347
      3   2  17   5        -0.0110139301
      4   2  24   3         0.0109846131
      4   3  21  18        -0.0107839077

    Largest Tijab Amplitudes:
      3   2  18   7         0.0128941752
      3   2  17   5        -0.0127190950
      3   2  18   3         0.0105110871
      3   1  21  13         0.0103384785
      3   2  16   3         0.0095504452
      3   2  16   5         0.0094021715
      3   2  18   1         0.0087733540
      3   2  15   7         0.0087377323
      3   2  15   1         0.0086761994
      2   1  24  21        -0.0082761915

    Largest TIjAb Amplitudes:
      3   3  18  18        -0.0382834813
      2   2   5   5        -0.0291685204
      4   3  24  18        -0.0270605423
      2   2   7   7        -0.0231495042
      3   3  18  15        -0.0211097275
      3   3  15  18        -0.0205312714
      2   2   3   3        -0.0205175423
      2   2   3   5        -0.0187977834
      3   3  15  15        -0.0187726120
      2   2   5   3        -0.0184447706

    SCF energy       (wfn)                    =  -75.403824199672215
    Reference energy (file100)                =  -75.403824199672215

    Opposite-spin MP2 correlation energy      =   -0.123078585933719
    Same-spin MP2 correlation energy          =   -0.040125508948674
    MP2 correlation energy                    =   -0.163204094882392
      * MP2 total energy                      =  -75.567028294554603

    Opposite-spin CCSD correlation energy     =   -0.139898116627839
    Same-spin CCSD correlation energy         =   -0.038098100656948
    CCSD correlation energy                   =   -0.177996217284787
      * CCSD total energy                     =  -75.581820416957001

            **************************
            *                        *
            *        CCTRIPLES       *
            *                        *
            **************************


    Wave function   =    CCSD_T
    Reference wfn   =      UHF

    Nuclear Rep. energy (wfn)                =    4.466105324668810
    SCF energy          (wfn)                =  -75.403824199672215
    Reference energy    (file100)            =  -75.403824199672215
    CCSD energy         (file100)            =   -0.177996217284787
    Total CCSD energy   (file100)            =  -75.581820416957001

    Number of ijk index combinations:
    Spin Case AAA:                                 125
    Spin Case BBB:                                  64
    Spin Case AAB:                                 100
    Spin Case ABB:                                  80

    Number of abc index combinations:
    Spin Case AAA:                               19683
    Spin Case BBB:                               21952
    Spin Case AAB:                               20412
    Spin Case ABB:                               21168

    Computing (T) contributions to CC density...
    AAA (T) energy                             =   -0.000099580127142
    BBB (T) energy                             =   -0.000021651155720
    AAB (T) energy                             =   -0.001923828878763
    ABB (T) energy                             =   -0.001268101672221
    (T) energy                                   =   -0.003313161833847
      * CCSD(T) total energy                     =  -75.585133578790845


			**************************
			*                        *
			*         CCHBAR         *
			*                        *
			**************************


			**************************
			*        CCLAMBDA        *
			**************************


	Nuclear Rep. energy (wfn)     =    4.466105324668810
	Reference           (wfn)     =                    2
	SCF energy          (wfn)     =  -75.585133578790845
	Reference energy    (CC_INFO) =  -75.403824199672215

	Input parameters:
	-----------------
	Maxiter           =     50
	Convergence       = 1.0e-07
	Restart           =     No
	Cache Level       =     2
	Model III         =     No
	DIIS              =     Yes
	AO Basis          =     No
	ABCD              =     NEW
	Local CC          =     No
	Parameters for left-handed eigenvectors:
	    Irr   Root  Ground-State?    EOM energy        R0
	  1   0     0        Yes       0.0000000000   1.0000000000
	Labels for eigenvector 1:
	LIA 0 -1, Lia 0 -1, LIJAB 0 -1, Lijab 0 -1, LIjAb 0 -1, 2LIjAb - LIjbA 0 -1
	Symmetry of left-hand state: B2
	Symmetry of left-hand eigenvector: A1

	          Solving Lambda Equations
	          ------------------------
	Iter     PseudoEnergy or Norm         RMS  
	----     ---------------------     --------
	   0        -0.178078794740883    0.000e+00
	   1        -0.181202040397196    2.530e-02
	   2        -0.180733354263698    4.323e-03
	   3        -0.180743181246502    1.206e-03
	   4        -0.180755943069750    6.107e-04
	   5        -0.180767113658713    2.333e-04
	   6        -0.180771407700524    8.176e-05
	   7        -0.180771756497548    2.315e-05
	   8        -0.180771787824187    7.912e-06
	   9        -0.180771799890208    2.322e-06
	  10        -0.180771787638534    9.373e-07
	  11        -0.180771781958892    3.508e-07
	  12        -0.180771779166213    1.196e-07
	  13        -0.180771779772805    4.423e-08

	Largest LIA Amplitudes:
	          3  15        -0.0133753498
	          4  21        -0.0111753528
	          3  16        -0.0073098041
	          4  22        -0.0066802226
	          2   3         0.0053759281
	          2   1         0.0043930578
	          2   9        -0.0039680854
	          2   8         0.0037650915
	          1   2        -0.0036907713
	          1   9         0.0024229413

	Largest Lia Amplitudes:
	          3  15        -0.0103508468
	          3  16        -0.0064991238
	          1   6        -0.0056722150
	          1   9        -0.0052872902
	          1   5        -0.0043444461
	          1   3        -0.0042356897
	          2   7        -0.0042082204
	          2   9        -0.0041082230
	          2   8         0.0040416467
	          1   4         0.0039139859

	Largest LIJAB Amplitudes:
	  4   3  24  18        -0.0208046133
	  4   3  13   6         0.0170179851
	  4   2  24   7         0.0141610482
	  3   2  18   7         0.0136574367
	  4   2  23   5        -0.0127087037
	  4   3  24  15        -0.0122741910
	  3   2  17   5        -0.0118417475
	  4   3  21  15        -0.0115216220
	  4   2  24   3         0.0114840396
	  4   3  14  11         0.0114699657

	Largest Lijab Amplitudes:
	  3   2  17   5        -0.0136497493
	  3   2  18   7         0.0130646516
	  3   2  16   3         0.0115461807
	  3   1  21  13         0.0110043956
	  3   2  18   3         0.0108343076
	  3   2  16   5         0.0106639474
	  3   2  15   1         0.0105079308
	  3   2  15   3         0.0097162849
	  3   2  15   7         0.0090240281
	  3   2  18   1         0.0089859699

	Largest LIjAb Amplitudes:
	  3   3  18  18        -0.0380177598
	  2   2   5   5        -0.0299145878
	  4   3  24  18        -0.0270567721
	  2   2   7   7        -0.0233123215
	  2   2   3   3        -0.0220902351
	  3   3  15  15        -0.0218151720
	  3   3  18  15        -0.0213109928
	  3   3  15  18        -0.0207708818
	  2   2   3   5        -0.0195528313
	  3   1  13  21        -0.0193916633

	Iterations converged.

	Overlap <L|e^T> =        0.94556462375

			**************************
			*                        *
			*        CCDENSITY       *
			*                        *
			**************************


	Input parameters:
	-----------------
	Wave function    = CCSD_T
	Reference wfn    =   UHF
	Dertype          = 1
	Tolerance        = 1.0e-14
	Cache Level      = 2
	AO Basis         = No
	OPDM Only        = No
	Relax OPDM       = Yes
	Compute Xi       = No
	Use Zeta         = No
	Xi connected     = Yes
	Compute NO       = No

	Nuclear Rep. energy (wfn)     =    4.466105324668810
	SCF energy          (wfn)     =  -75.585133578790845
	Reference energy    (file100) =  -75.403824199672215
	CCSD energy         (CC_INFO) =   -0.177996217284787
	(T) energy          (CC_INFO) =   -0.003313161833847
	Total CCSD(T) energy(CC_INFO) =  -75.585133578790845
	Number of States = 1

	Ground?  State     EOM Energy       R0
	  Yes     0 A1    0.0000000000   1.00000000
  Cartesian Displacement SALCs
  By SALC:
  Number of SALCs: 2, nirreps: A1
  Project out translations: False
  Project out rotations: False
	irrep = 0, ncomponent = 1
		0: atom 0, direction z, coef 1.000000
	irrep = 0, ncomponent = 1
		0: atom 1, direction z, coef 1.000000

  By Atomic Center:
  Number of atomic centers: 2
   Atomic Center 0:
	x component, size = 0
	y component, size = 0
	z component, size = 1
		0: salc 0, irrep 0, coef 1.000000
   Atomic Center 1:
	x component, size = 0
	y component, size = 0
	z component, size = 1
		0: salc 1, irrep 0, coef 1.000000

    Molecular point group: c2v
    Full point group: C_inf_v

    Geometry (in Bohr), charge = 0, multiplicity = 2:

       Center              X                  Y                   Z       
    ------------   -----------------  -----------------  -----------------
         O            0.000000000000     0.000000000000    -0.106176220599
         H            0.000000000000     0.000000000000     1.685093670823

	Presorting MO-basis TPDMs.
	Sorting File: MO TPDM (AA|AA) nbuckets = 1
	Sorting File: MO TPDM (AA|aa) nbuckets = 1
	Sorting File: MO TPDM (aa|aa) nbuckets = 1
	Starting first half-transformation.
	Sorting half-transformed TPDMs.
	First half integral transformation complete.


  -Nuclear Repulsion Energy 1st Derivatives:
     Atom            X                  Y                   Z
    ------   -----------------  -----------------  -----------------
       1        0.000000000000     0.000000000000     2.493262096379
       2        0.000000000000     0.000000000000    -2.493262096379


  -Core Hamiltonian Gradient:
     Atom            X                  Y                   Z
    ------   -----------------  -----------------  -----------------
       1        0.000000000000     0.000000000000    -5.984739093593
       2        0.000000000000     0.000000000000     5.984739093593


  -Lagrangian contribution to gradient:
     Atom            X                  Y                   Z
    ------   -----------------  -----------------  -----------------
       1        0.000000000000     0.000000000000     0.423806030614
       2        0.000000000000     0.000000000000    -0.423806030614


  -Two-electron contribution to gradient:
     Atom            X                  Y                   Z
    ------   -----------------  -----------------  -----------------
       1        0.000000000000     0.000000000000     3.099783356098
       2        0.000000000000     0.000000000000    -3.099783356098


  -Total gradient:
     Atom            X                  Y                   Z
    ------   -----------------  -----------------  -----------------
       1        0.000000000000     0.000000000000     0.032112389498
       2        0.000000000000     0.000000000000    -0.032112389498


			-----------------------------------------
			 OPTKING 2.0: for geometry optimizations 
			  - R.A. King,  Bethel University        
			-----------------------------------------

	Internal coordinates to be generated automatically.
	Detected frag 1 with atoms:  1 2
	---Fragment 1 Bond Connectivity---
	 1 : 2
	 2 : 1

	---Fragment 1 Geometry and Gradient---
	 O           0.0000000000        0.0000000000       -0.1061762206
	 H           0.0000000000        0.0000000000        1.6850936708
	             0.0000000000        0.0000000000        0.0321123895
	             0.0000000000        0.0000000000       -0.0321123895

	Previous optimization step data not found.  Starting new optimization.

	---Fragment 1 Intrafragment Coordinates---
	 - Coordinate -           - BOHR/RAD -       - ANG/DEG -
	 R(1,2)           =         1.791270	       0.947899

	Current energy   :       -75.5851335788

	Generating empirical Hessian (Schlegel '84) for each fragment.
	Taking RFO optimization step.
	Going to follow RFO solution 1.
	Using RFO vector 1.
	Norm of target step-size    0.05505
	Projected energy change by RFO approximation:        -0.0002518455

	Back-transformation to cartesian coordinates...
	Successfully converged to displaced geometry.

	--- Internal Coordinate Step in ANG or DEG, aJ/ANG or AJ/DEG ---
	 ---------------------------------------------------------------------------
	   Coordinate                Previous        Force       Change         New 
	   ----------                --------       ------       ------       ------
	    1 R(1,2)          =      0.947899     0.264565     0.029130     0.977029
	 ---------------------------------------------------------------------------
	Successfully symmetrized geometry.

  ==> Convergence Check <==

  Measures of convergence in internal coordinates in au.
  Criteria marked as inactive (o), active & met (*), and active & unmet ( ).
  --------------------------------------------------------------------------------------------- ~
   Step     Total Energy     Delta E     MAX Force     RMS Force      MAX Disp      RMS Disp    ~
  --------------------------------------------------------------------------------------------- ~
    Convergence Criteria             o    2.00e-06 *    1.00e-06 *    6.00e-06 *    4.00e-06 *  ~
  --------------------------------------------------------------------------------------------- ~
      1     -75.58513358   -7.56e+01 o    3.21e-02      3.21e-02      5.50e-02      5.50e-02    ~
  ---------------------------------------------------------------------------------------------

	Writing optimization data to binary file.
	Structure for next step:
	Cartesian Geometry (in Angstrom)
	    O     0.0000000000   0.0000000000  -0.0707507986
	    H     0.0000000000   0.0000000000   0.9062779275
			--------------------------
			 OPTKING Finished Execution 
			--------------------------

    Structure for next step:
    Molecular point group: c2v
    Full point group: C_inf_v

    Geometry (in Angstrom), charge = 0, multiplicity = 2:

    O       
    H             1          R1

    R1        =    0.9770287300

gradient() will perform analytic gradient computation.

*** tstart() called on c1-17.compute.lan
*** at Tue Feb 23 13:39:58 2021

   => Loading Basis Set <=

    Name: AUG-CC-PVDZ
    Role: ORBITAL
    Keyword: BASIS
    atoms 1 entry O          line   254 file /apps/gb/PSI4/1.4.0/share/psi4/basis/aug-cc-pvdz.gbs 
    atoms 2 entry H          line    40 file /apps/gb/PSI4/1.4.0/share/psi4/basis/aug-cc-pvdz.gbs 


         ---------------------------------------------------------
                                   SCF
               by Justin Turney, Rob Parrish, Andy Simmonett
                          and Daniel G. A. Smith
                              UHF Reference
                        1 Threads,   9536 MiB Core
         ---------------------------------------------------------

  ==> Geometry <==

    Molecular point group: c2v
    Full point group: C_inf_v

    Geometry (in Angstrom), charge = 0, multiplicity = 2:

       Center              X                  Y                   Z               Mass       
    ------------   -----------------  -----------------  -----------------  -----------------
         O            0.000000000000     0.000000000000    -0.057912667690    15.994914619570
         H            0.000000000000     0.000000000000     0.919116062281     1.007825032230

  Running in c2v symmetry.

  Rotational constants: A = ************  B =     18.62660  C =     18.62660 [cm^-1]
  Rotational constants: A = ************  B = 558411.51834  C = 558411.51834 [MHz]
  Nuclear repulsion =    4.332951074514392

  Charge       = 0
  Multiplicity = 2
  Electrons    = 9
  Nalpha       = 5
  Nbeta        = 4

  ==> Algorithm <==

  SCF Algorithm Type is PK.
  DIIS enabled.
  MOM disabled.
  Fractional occupation disabled.
  Guess Type is READ.
  Energy threshold   = 1.00e-10
  Density threshold  = 1.00e-10
  Integral threshold = 0.00e+00

  ==> Primary Basis <==

  Basis Set: AUG-CC-PVDZ
    Blend: AUG-CC-PVDZ
    Number of shells: 14
    Number of basis function: 32
    Number of Cartesian functions: 34
    Spherical Harmonics?: true
    Max angular momentum: 2

   => Loading Basis Set <=

    Name: AUG-CC-PVDZ
    Role: ORBITAL
    Keyword: BASIS
    atoms 1 entry O          line   254 file /apps/gb/PSI4/1.4.0/share/psi4/basis/aug-cc-pvdz.gbs 
    atoms 2 entry H          line    40 file /apps/gb/PSI4/1.4.0/share/psi4/basis/aug-cc-pvdz.gbs 

  Reading orbitals from file 180, no projection.

  ==> Pre-Iterations <==

   -------------------------------------------------------
    Irrep   Nso     Nmo     Nalpha   Nbeta   Ndocc  Nsocc
   -------------------------------------------------------
     A1        16      16       0       0       0       0
     A2         2       2       0       0       0       0
     B1         7       7       0       0       0       0
     B2         7       7       0       0       0       0
   -------------------------------------------------------
    Total      32      32       5       4       4       1
   -------------------------------------------------------

  ==> Integral Setup <==

  Using in-core PK algorithm.
   Calculation information:
      Number of atoms:                   2
      Number of AO shells:              14
      Number of primitives:             32
      Number of atomic orbitals:        34
      Number of basis functions:        32

      Integral cutoff                 1.00e-12
      Number of threads:                 1

  Performing in-core PK
  Using 279312 doubles for integral storage.
  We computed 5565 shell quartets total.
  Whereas there are 5565 unique shell quartets.

  ==> DiskJK: Disk-Based J/K Matrices <==

    J tasked:                  Yes
    K tasked:                  Yes
    wK tasked:                  No
    Memory [MiB]:             7152
    Schwarz Cutoff:          1E-12

    OpenMP threads:              1

  Minimum eigenvalue in the overlap matrix is 3.4642870376E-03.
  Using Symmetric Orthogonalization.

  SCF Guess: Orbitals guess was supplied from a previous computation.

  ==> Iterations <==

                        Total Energy        Delta E     RMS |[F,P]|

   @UHF iter   0:   -75.37974021778615   -7.53797e+01   4.38705e-03 
   @UHF iter   1:   -75.40334039409260   -2.36002e-02   5.36348e-04 DIIS
   @UHF iter   2:   -75.40338752194910   -4.71279e-05   1.69923e-04 DIIS
   @UHF iter   3:   -75.40339160937310   -4.08742e-06   4.43044e-05 DIIS
   @UHF iter   4:   -75.40339221528973   -6.05917e-07   1.75260e-05 DIIS
   @UHF iter   5:   -75.40339235376271   -1.38473e-07   7.73620e-06 DIIS
   @UHF iter   6:   -75.40339239759763   -4.38349e-08   3.12013e-06 DIIS
   @UHF iter   7:   -75.40339240529954   -7.70191e-09   7.06139e-07 DIIS
   @UHF iter   8:   -75.40339240560971   -3.10166e-10   8.37877e-08 DIIS
   @UHF iter   9:   -75.40339240561308   -3.36797e-12   1.70262e-08 DIIS
   @UHF iter  10:   -75.40339240561315   -7.10543e-14   5.26153e-09 DIIS
   @UHF iter  11:   -75.40339240561326   -1.13687e-13   1.10499e-09 DIIS
   @UHF iter  12:   -75.40339240561327   -1.42109e-14   2.46663e-10 DIIS
   @UHF iter  13:   -75.40339240561320    7.10543e-14   5.61118e-11 DIIS
  Energy and wave function converged.


  ==> Post-Iterations <==

   @Spin Contamination Metric:   6.657769751E-03
   @S^2 Expected:                7.500000000E-01
   @S^2 Observed:                7.566577698E-01
   @S   Expected:                5.000000000E-01
   @S   Observed:                5.000000000E-01

    Orbital Energies [Eh]
    ---------------------

    Alpha Occupied:                                                       

       1A1   -20.651952     2A1    -1.390978     3A1    -0.682214  
       1B2    -0.656849     1B1    -0.561304  

    Alpha Virtual:                                                        

       4A1     0.035597     5A1     0.178355     2B2     0.185298  
       2B1     0.198224     6A1     0.225079     7A1     0.315384  
       3B2     0.385628     3B1     0.395905     8A1     0.624345  
       9A1     0.838659     1A2     0.956690    10A1     0.958383  
       4B2     1.086644     4B1     1.117034    11A1     1.316250  
       5B2     1.327194     5B1     1.386071    12A1     1.659372  
       6B2     2.009155     6B1     2.026788    13A1     2.479434  
      14A1     2.759287    15A1     3.484281     2A2     3.484421  
       7B2     3.590984     7B1     3.651253    16A1     4.085523  

    Beta Occupied:                                                        

       1A1   -20.611010     2A1    -1.232671     3A1    -0.637991  
       1B1    -0.511584  

    Beta Virtual:                                                         

       4A1     0.037081     1B2     0.064671     5A1     0.181849  
       2B1     0.201690     6A1     0.231912     2B2     0.258144  
       7A1     0.320526     3B1     0.395418     3B2     0.408540  
       8A1     0.639184     9A1     0.848580     1A2     0.995370  
      10A1     0.996442     4B1     1.119281     4B2     1.132119  
      11A1     1.331344     5B1     1.409329     5B2     1.497923  
      12A1     1.682511     6B2     2.016731     6B1     2.023345  
      13A1     2.511398    14A1     2.775208     2A2     3.584732  
      15A1     3.585435     7B1     3.670050     7B2     3.687872  
      16A1     4.119859  

    Final Occupation by Irrep:
             A1    A2    B1    B2 
    DOCC [     3,    0,    1,    0 ]
    SOCC [     0,    0,    0,    1 ]

  @UHF Final Energy:   -75.40339240561320

   => Energetics <=

    Nuclear Repulsion Energy =              4.3329510745143915
    One-Electron Energy =                -112.5361339572863244
    Two-Electron Energy =                  32.7997904771587230
    Total Energy =                        -75.4033924056132037

  UHF NO Occupations:
  HONO-2 :    2 A1 1.9992258
  HONO-1 :    3 A1 1.9980041
  HONO-0 :    1 B2 1.0000000
  LUNO+0 :    4 A1 0.0019959
  LUNO+1 :    5 A1 0.0007742
  LUNO+2 :    2 B1 0.0005608
  LUNO+3 :    6 A1 0.0000004


Computation Completed


Properties will be evaluated at   0.000000,   0.000000,   0.000000 [a0]

Properties computed using the SCF density matrix

  Nuclear Dipole Moment: [e a0]
     X:     0.0000      Y:     0.0000      Z:     0.8614

  Electronic Dipole Moment: [e a0]
     X:     0.0000      Y:     0.0000      Z:    -0.1625

  Dipole Moment: [e a0]
     X:     0.0000      Y:     0.0000      Z:     0.6988     Total:     0.6988

  Dipole Moment: [D]
     X:     0.0000      Y:     0.0000      Z:     1.7763     Total:     1.7763


*** tstop() called on c1-17.compute.lan at Tue Feb 23 13:39:59 2021
Module time:
	user time   =       0.34 seconds =       0.01 minutes
	system time =       0.02 seconds =       0.00 minutes
	total time  =          1 seconds =       0.02 minutes
Total time:
	user time   =      76.25 seconds =       1.27 minutes
	system time =      36.56 seconds =       0.61 minutes
	total time  =        115 seconds =       1.92 minutes
 MINTS: Wrapper to libmints.
   by Justin Turney

   Calculation information:
      Number of threads:                 1
      Number of atoms:                   2
      Number of AO shells:              14
      Number of SO shells:              14
      Number of primitives:             32
      Number of atomic orbitals:        34
      Number of basis functions:        32

      Number of irreps:                  4
      Integral cutoff                 0.00e+00
      Number of functions per irrep: [  16    2    7    7 ]

 OEINTS: Overlap, kinetic, potential, dipole, and quadrupole integrals
         stored in file 35.

      Computing two-electron integrals...done
      Computed 33337 non-zero two-electron integrals.
        Stored in file 33.


*** tstart() called on c1-17.compute.lan
*** at Tue Feb 23 13:39:59 2021


	Wfn Parameters:
	--------------------
	Wavefunction         = CCSD_T
	Number of irreps     = 4
	Number of MOs        = 32
	Number of active MOs = 32
	AO-Basis             = NONE
	Semicanonical        = false
	Reference            = UHF
	Print Level          = 1

	IRREP	# MOs	# FZDC	# DOCC	# SOCC	# VIRT	# FZVR
	-----	-----	------	------	------	------	------
	 A1	   16	    0	    3	    0	    13	    0
	 A2	   2	    0	    0	    0	    2	    0
	 B1	   7	    0	    1	    0	    6	    0
	 B2	   7	    0	    0	    1	    6	    0
	Transforming integrals...
	IWL integrals will be deleted.
	(OO|OO)...
	Presorting SO-basis two-electron integrals.
	Sorting File: SO Ints (nn|nn) nbuckets = 1
	Transforming the one-electron integrals and constructing Fock matrices
	Starting AA/AB first half-transformation.
	Sorting AA/AB half-transformed integrals.
	Starting BB first half-transformation.
	Sorting BB half-transformed integrals.
	First half integral transformation complete.
	Starting AA second half-transformation.
	Starting AB second half-transformation.
	Starting BB second half-transformation.
	Two-electron integral transformation complete.
	(OO|OV)...
	Starting AA second half-transformation.
	Starting AB second half-transformation.
	Starting BB second half-transformation.
	Two-electron integral transformation complete.
	(OO|VV)...
	Starting AA second half-transformation.
	Starting AB second half-transformation.
	Starting BB second half-transformation.
	Two-electron integral transformation complete.
	(OV|OO)...
	Starting AA/AB first half-transformation.
	Sorting AA/AB half-transformed integrals.
	Starting BB first half-transformation.
	Sorting BB half-transformed integrals.
	First half integral transformation complete.
	Starting AA second half-transformation.
	Starting AB second half-transformation.
	Starting BB second half-transformation.
	Two-electron integral transformation complete.
	(OV|OV)...
	Starting AA second half-transformation.
	Starting AB second half-transformation.
	Starting BB second half-transformation.
	Two-electron integral transformation complete.
	(OV|VV)...
	Starting AA second half-transformation.
	Starting AB second half-transformation.
	Starting BB second half-transformation.
	Two-electron integral transformation complete.
	(VV|OO)...
	Starting AA/AB first half-transformation.
	Sorting AA/AB half-transformed integrals.
	Starting BB first half-transformation.
	Sorting BB half-transformed integrals.
	First half integral transformation complete.
	Starting AA second half-transformation.
	Starting AB second half-transformation.
	Starting BB second half-transformation.
	Two-electron integral transformation complete.
	(VV|OV)...
	Starting AA second half-transformation.
	Starting AB second half-transformation.
	Starting BB second half-transformation.
	Two-electron integral transformation complete.
	(VV|VV)...
	Starting AA second half-transformation.
	Starting AB second half-transformation.
	Starting BB second half-transformation.
	Two-electron integral transformation complete.
	Frozen core energy     =      0.00000000000000

	Size of irrep 0 of <AB|CD> integrals:      0.012 (MW) /      0.095 (MB)
	Size of irrep 1 of <AB|CD> integrals:      0.004 (MW) /      0.031 (MB)
	Size of irrep 2 of <AB|CD> integrals:      0.008 (MW) /      0.065 (MB)
	Size of irrep 3 of <AB|CD> integrals:      0.008 (MW) /      0.065 (MB)
	Total:                                     0.032 (MW) /      0.255 (MB)

	Size of irrep 0 of <ab|cd> integrals:      0.013 (MW) /      0.106 (MB)
	Size of irrep 1 of <ab|cd> integrals:      0.005 (MW) /      0.037 (MB)
	Size of irrep 2 of <ab|cd> integrals:      0.008 (MW) /      0.068 (MB)
	Size of irrep 3 of <ab|cd> integrals:      0.011 (MW) /      0.085 (MB)
	Total:                                     0.037 (MW) /      0.295 (MB)

	Size of irrep 0 of <Ab|Cd> integrals:      0.063 (MW) /      0.504 (MB)
	Size of irrep 1 of <Ab|Cd> integrals:      0.017 (MW) /      0.135 (MB)
	Size of irrep 2 of <Ab|Cd> integrals:      0.033 (MW) /      0.265 (MB)
	Size of irrep 3 of <Ab|Cd> integrals:      0.037 (MW) /      0.298 (MB)
	Total:                                     0.150 (MW) /      1.202 (MB)

	Size of irrep 0 of <IA|BC> integrals:      0.012 (MW) /      0.100 (MB)
	Size of irrep 1 of <IA|BC> integrals:      0.002 (MW) /      0.018 (MB)
	Size of irrep 2 of <IA|BC> integrals:      0.006 (MW) /      0.048 (MB)
	Size of irrep 3 of <IA|BC> integrals:      0.006 (MW) /      0.048 (MB)
	Total:                                     0.027 (MW) /      0.213 (MB)

	Size of irrep 0 of <ia|bc> integrals:      0.012 (MW) /      0.093 (MB)
	Size of irrep 1 of <ia|bc> integrals:      0.002 (MW) /      0.014 (MB)
	Size of irrep 2 of <ia|bc> integrals:      0.006 (MW) /      0.046 (MB)
	Size of irrep 3 of <ia|bc> integrals:      0.005 (MW) /      0.038 (MB)
	Total:                                     0.024 (MW) /      0.191 (MB)

	Size of irrep 0 of <Ia|Bc> integrals:      0.013 (MW) /      0.104 (MB)
	Size of irrep 1 of <Ia|Bc> integrals:      0.002 (MW) /      0.020 (MB)
	Size of irrep 2 of <Ia|Bc> integrals:      0.006 (MW) /      0.048 (MB)
	Size of irrep 3 of <Ia|Bc> integrals:      0.007 (MW) /      0.056 (MB)
	Total:                                     0.028 (MW) /      0.228 (MB)

	Size of irrep 0 of <iA|bC> integrals:      0.011 (MW) /      0.090 (MB)
	Size of irrep 1 of <iA|bC> integrals:      0.002 (MW) /      0.012 (MB)
	Size of irrep 2 of <iA|bC> integrals:      0.006 (MW) /      0.045 (MB)
	Size of irrep 3 of <iA|bC> integrals:      0.004 (MW) /      0.031 (MB)
	Total:                                     0.022 (MW) /      0.179 (MB)

	Size of irrep 0 of tIjAb amplitudes:       0.003 (MW) /      0.020 (MB)
	Size of irrep 1 of tIjAb amplitudes:       0.000 (MW) /      0.001 (MB)
	Size of irrep 2 of tIjAb amplitudes:       0.001 (MW) /      0.009 (MB)
	Size of irrep 3 of tIjAb amplitudes:       0.001 (MW) /      0.005 (MB)
	Total:                                     0.004 (MW) /      0.034 (MB)

	Nuclear Rep. energy          =      4.33295107451439
	SCF energy                   =    -75.40339240561320
	One-electron energy          =   -112.53613395724837
	Two-electron (AA) energy     =      7.72772515927262
	Two-electron (BB) energy     =      4.61995583535069
	Two-electron (AB) energy     =     20.45210948249744
	Two-electron energy          =     32.79979047712075
	Reference energy             =    -75.40339240561322

*** tstop() called on c1-17.compute.lan at Tue Feb 23 13:39:59 2021
Module time:
	user time   =       0.08 seconds =       0.00 minutes
	system time =       0.14 seconds =       0.00 minutes
	total time  =          0 seconds =       0.00 minutes
Total time:
	user time   =      76.38 seconds =       1.27 minutes
	system time =      36.71 seconds =       0.61 minutes
	total time  =        115 seconds =       1.92 minutes
            **************************
            *                        *
            *        CCENERGY        *
            *                        *
            **************************

    Nuclear Rep. energy (wfn)     =    4.332951074514392
    SCF energy          (wfn)     =  -75.403392405613204
    Reference energy    (file100) =  -75.403392405613218

    Input parameters:
    -----------------
    Wave function   =     CCSD_T
    Reference wfn   =     UHF
    Brueckner       =     No
    Memory (Mbytes) =     10000.0
    Maxiter         =     50
    R_Convergence   =     1.0e-10
    E_Convergence   =     1.0e-10
    Restart         =     Yes
    DIIS            =     Yes
    AO Basis        =     NONE
    ABCD            =     NEW
    Cache Level     =     2
    Cache Type      =     LRU
    Print Level     =     1
    Num. of threads =     1
    # Amps to Print =     10
    Print MP2 Amps? =     No
    Analyze T2 Amps =     No
    Print Pair Ener =     No
    Local CC        =     No
    SCS-MP2         =     False
    SCSN-MP2        =     False
    SCS-CCSD        =     False

    Using old T1 amplitudes.
    Using old T2 amplitudes.
MP2 correlation energy -0.1643268396052071
                Solving CC Amplitude Equations
                ------------------------------
  Iter             Energy              RMS        T1Diag      D1Diag    New D1Diag    D2Diag
  ----     ---------------------    ---------   ----------  ----------  ----------   --------
     0        -0.171711633957632    0.000e+00    0.014898    0.000000    0.000000    0.000000
     1        -0.178655107061458    5.844e-02    0.015289    0.000000    0.000000    0.000000
     2        -0.178938261530755    1.562e-02    0.015247    0.000000    0.000000    0.000000
     3        -0.179214444750004    3.882e-03    0.015265    0.000000    0.000000    0.000000
     4        -0.179228095345193    1.167e-03    0.015341    0.000000    0.000000    0.000000
     5        -0.179238507492652    3.248e-04    0.015339    0.000000    0.000000    0.000000
     6        -0.179240267253414    1.313e-04    0.015341    0.000000    0.000000    0.000000
     7        -0.179241012587150    4.776e-05    0.015339    0.000000    0.000000    0.000000
     8        -0.179241337106227    2.260e-05    0.015338    0.000000    0.000000    0.000000
     9        -0.179241491392938    8.006e-06    0.015338    0.000000    0.000000    0.000000
    10        -0.179241610701495    2.703e-06    0.015339    0.000000    0.000000    0.000000
    11        -0.179241656802519    8.301e-07    0.015339    0.000000    0.000000    0.000000
    12        -0.179241666787843    2.409e-07    0.015339    0.000000    0.000000    0.000000
    13        -0.179241669618495    7.852e-08    0.015339    0.000000    0.000000    0.000000
    14        -0.179241669559915    2.506e-08    0.015339    0.000000    0.000000    0.000000
    15        -0.179241669745060    9.667e-09    0.015339    0.000000    0.000000    0.000000
    16        -0.179241669801708    3.599e-09    0.015339    0.000000    0.000000    0.000000
    17        -0.179241669844651    1.405e-09    0.015339    0.000000    0.000000    0.000000
    18        -0.179241669865697    6.463e-10    0.015339    0.000000    0.000000    0.000000
    19        -0.179241669874984    2.949e-10    0.015339    0.000000    0.000000    0.000000
    20        -0.179241669878880    1.125e-10    0.015339    0.000000    0.000000    0.000000
    21        -0.179241669879736    4.073e-11    0.015339    0.000000    0.000000    0.000000

    Iterations converged.


    Largest TIA Amplitudes:
              3  15        -0.0204725149
              4  21        -0.0182622850
              3  16        -0.0116393126
              4  22        -0.0106259493
              2   3         0.0096881676
              2   1         0.0086284486
              1   2        -0.0064564370
              2   9        -0.0051423428
              4  24        -0.0040210512
              3  18        -0.0034299554

    Largest Tia Amplitudes:
              3  15        -0.0186235364
              3  16        -0.0114345217
              2   3         0.0075379895
              1   3        -0.0056618796
              1   6        -0.0055649200
              2   9        -0.0053791390
              2   1         0.0053048284
              1   9        -0.0050642076
              1   5        -0.0040559395
              2   8         0.0036978615

    Largest TIJAB Amplitudes:
      4   3  24  18        -0.0208069087
      4   3  13   6         0.0156751941
      4   2  24   7         0.0135244050
      3   2  18   7         0.0130537236
      4   3  24  15        -0.0118462937
      4   2  23   5        -0.0116968273
      4   3  14  11         0.0116486694
      3   2  17   5        -0.0109847792
      4   3  21  18        -0.0109270772
      4   2  24   3         0.0108534637

    Largest Tijab Amplitudes:
      3   2  17   5        -0.0125421739
      3   2  18   7         0.0124850997
      3   2  18   3         0.0104243524
      3   1  21  13         0.0104133106
      3   2  16   3         0.0094703328
      3   2  18   1         0.0091975946
      3   2  16   5         0.0091596143
      3   2  15   1         0.0091395504
      3   2  15   7         0.0085437369
      2   1  24  21        -0.0083112778

    Largest TIjAb Amplitudes:
      3   3  18  18        -0.0386358349
      2   2   5   5        -0.0285346994
      4   3  24  18        -0.0273275252
      2   2   7   7        -0.0220860747
      3   3  18  15        -0.0214790802
      3   3  15  18        -0.0208736423
      2   2   3   3        -0.0207263698
      3   3  15  15        -0.0190835695
      2   2   3   5        -0.0185690542
      3   1  13  21        -0.0184186341

    SCF energy       (wfn)                    =  -75.403392405613204
    Reference energy (file100)                =  -75.403392405613218

    Opposite-spin MP2 correlation energy      =   -0.123977645571749
    Same-spin MP2 correlation energy          =   -0.040349194033458
    MP2 correlation energy                    =   -0.164326839605207
      * MP2 total energy                      =  -75.567719245218427

    Opposite-spin CCSD correlation energy     =   -0.141050255395144
    Same-spin CCSD correlation energy         =   -0.038191414484592
    CCSD correlation energy                   =   -0.179241669879736
      * CCSD total energy                     =  -75.582634075492948

            **************************
            *                        *
            *        CCTRIPLES       *
            *                        *
            **************************


    Wave function   =    CCSD_T
    Reference wfn   =      UHF

    Nuclear Rep. energy (wfn)                =    4.332951074514392
    SCF energy          (wfn)                =  -75.403392405613204
    Reference energy    (file100)            =  -75.403392405613218
    CCSD energy         (file100)            =   -0.179241669879736
    Total CCSD energy   (file100)            =  -75.582634075492948

    Number of ijk index combinations:
    Spin Case AAA:                                 125
    Spin Case BBB:                                  64
    Spin Case AAB:                                 100
    Spin Case ABB:                                  80

    Number of abc index combinations:
    Spin Case AAA:                               19683
    Spin Case BBB:                               21952
    Spin Case AAB:                               20412
    Spin Case ABB:                               21168

    Computing (T) contributions to CC density...
    AAA (T) energy                             =   -0.000100217180590
    BBB (T) energy                             =   -0.000022166317225
    AAB (T) energy                             =   -0.001975792113356
    ABB (T) energy                             =   -0.001309660366225
    (T) energy                                   =   -0.003407835977396
      * CCSD(T) total energy                     =  -75.586041911470346


			**************************
			*                        *
			*         CCHBAR         *
			*                        *
			**************************


			**************************
			*        CCLAMBDA        *
			**************************


	Nuclear Rep. energy (wfn)     =    4.332951074514392
	Reference           (wfn)     =                    2
	SCF energy          (wfn)     =  -75.586041911470346
	Reference energy    (CC_INFO) =  -75.403392405613218

	Input parameters:
	-----------------
	Maxiter           =     50
	Convergence       = 1.0e-07
	Restart           =     No
	Cache Level       =     2
	Model III         =     No
	DIIS              =     Yes
	AO Basis          =     No
	ABCD              =     NEW
	Local CC          =     No
	Parameters for left-handed eigenvectors:
	    Irr   Root  Ground-State?    EOM energy        R0
	  1   0     0        Yes       0.0000000000   1.0000000000
	Labels for eigenvector 1:
	LIA 0 -1, Lia 0 -1, LIJAB 0 -1, Lijab 0 -1, LIjAb 0 -1, 2LIjAb - LIjbA 0 -1
	Symmetry of left-hand state: B2
	Symmetry of left-hand eigenvector: A1

	          Solving Lambda Equations
	          ------------------------
	Iter     PseudoEnergy or Norm         RMS  
	----     ---------------------     --------
	   0        -0.179324704993208    4.423e-08
	   1        -0.182501795185537    2.592e-02
	   2        -0.182009170043178    4.507e-03
	   3        -0.182018782066781    1.266e-03
	   4        -0.182032397080016    6.472e-04
	   5        -0.182044692502367    2.500e-04
	   6        -0.182049418060791    8.827e-05
	   7        -0.182049810538572    2.563e-05
	   8        -0.182049850212187    9.100e-06
	   9        -0.182049861299888    2.830e-06
	  10        -0.182049845287039    1.238e-06
	  11        -0.182049838775951    4.845e-07
	  12        -0.182049835710656    1.723e-07
	  13        -0.182049836823087    6.457e-08

	Largest LIA Amplitudes:
	          3  15        -0.0138010600
	          4  21        -0.0114833772
	          3  16        -0.0073934888
	          4  22        -0.0066726899
	          2   3         0.0058444082
	          2   1         0.0047374378
	          2   9        -0.0044448553
	          2   8         0.0040828451
	          1   2        -0.0037311907
	          1   9         0.0023547228

	Largest Lia Amplitudes:
	          3  15        -0.0106678793
	          3  16        -0.0065750377
	          1   6        -0.0057075943
	          1   9        -0.0054812413
	          2   9        -0.0048021074
	          1   4         0.0045188566
	          2   8         0.0044678621
	          1   3        -0.0044346705
	          2   7        -0.0043577417
	          1   5        -0.0042866217

	Largest LIJAB Amplitudes:
	  4   3  24  18        -0.0210270618
	  4   3  13   6         0.0170483048
	  4   2  24   7         0.0137588393
	  3   2  18   7         0.0132574346
	  4   2  23   5        -0.0125309142
	  4   3  24  15        -0.0124688060
	  3   2  17   5        -0.0118130947
	  4   3  21  15        -0.0116828433
	  4   3  14  11         0.0114696487
	  4   2  24   3         0.0113450748

	Largest Lijab Amplitudes:
	  3   2  17   5        -0.0134514685
	  3   2  18   7         0.0126572501
	  3   2  16   3         0.0114685731
	  3   1  21  13         0.0110878872
	  3   2  15   1         0.0110318689
	  3   2  18   3         0.0107280048
	  3   2  16   5         0.0104218436
	  3   2  15   3         0.0098514944
	  3   2  18   1         0.0094046978
	  3   2  15   7         0.0087957692

	Largest LIjAb Amplitudes:
	  3   3  18  18        -0.0383772750
	  2   2   5   5        -0.0292261447
	  4   3  24  18        -0.0273337996
	  2   2   3   3        -0.0222573482
	  2   2   7   7        -0.0222373603
	  3   3  15  15        -0.0222287966
	  3   3  18  15        -0.0216991416
	  3   3  15  18        -0.0211349813
	  3   1  13  21        -0.0195462435
	  2   2   3   5        -0.0192814133

	Iterations converged.

	Overlap <L|e^T> =        0.94410458209

			**************************
			*                        *
			*        CCDENSITY       *
			*                        *
			**************************


	Input parameters:
	-----------------
	Wave function    = CCSD_T
	Reference wfn    =   UHF
	Dertype          = 1
	Tolerance        = 1.0e-14
	Cache Level      = 2
	AO Basis         = No
	OPDM Only        = No
	Relax OPDM       = Yes
	Compute Xi       = No
	Use Zeta         = No
	Xi connected     = Yes
	Compute NO       = No

	Nuclear Rep. energy (wfn)     =    4.332951074514392
	SCF energy          (wfn)     =  -75.586041911470346
	Reference energy    (file100) =  -75.403392405613218
	CCSD energy         (CC_INFO) =   -0.179241669879736
	(T) energy          (CC_INFO) =   -0.003407835977396
	Total CCSD(T) energy(CC_INFO) =  -75.586041911470346
	Number of States = 1

	Ground?  State     EOM Energy       R0
	  Yes     0 A1    0.0000000000   1.00000000
  Cartesian Displacement SALCs
  By SALC:
  Number of SALCs: 2, nirreps: A1
  Project out translations: False
  Project out rotations: False
	irrep = 0, ncomponent = 1
		0: atom 0, direction z, coef 1.000000
	irrep = 0, ncomponent = 1
		0: atom 1, direction z, coef 1.000000

  By Atomic Center:
  Number of atomic centers: 2
   Atomic Center 0:
	x component, size = 0
	y component, size = 0
	z component, size = 1
		0: salc 0, irrep 0, coef 1.000000
   Atomic Center 1:
	x component, size = 0
	y component, size = 0
	z component, size = 1
		0: salc 1, irrep 0, coef 1.000000

    Molecular point group: c2v
    Full point group: C_inf_v

    Geometry (in Bohr), charge = 0, multiplicity = 2:

       Center              X                  Y                   Z       
    ------------   -----------------  -----------------  -----------------
         O            0.000000000000     0.000000000000    -0.109439081129
         H            0.000000000000     0.000000000000     1.736877635221

	Presorting MO-basis TPDMs.
	Sorting File: MO TPDM (AA|AA) nbuckets = 1
	Sorting File: MO TPDM (AA|aa) nbuckets = 1
	Sorting File: MO TPDM (aa|aa) nbuckets = 1
	Starting first half-transformation.
	Sorting half-transformed TPDMs.
	First half integral transformation complete.


  -Nuclear Repulsion Energy 1st Derivatives:
     Atom            X                  Y                   Z
    ------   -----------------  -----------------  -----------------
       1        0.000000000000     0.000000000000     2.346808126767
       2        0.000000000000     0.000000000000    -2.346808126767


  -Core Hamiltonian Gradient:
     Atom            X                  Y                   Z
    ------   -----------------  -----------------  -----------------
       1        0.000000000000     0.000000000000    -5.741614262788
       2        0.000000000000     0.000000000000     5.741614262788


  -Lagrangian contribution to gradient:
     Atom            X                  Y                   Z
    ------   -----------------  -----------------  -----------------
       1        0.000000000000     0.000000000000     0.406258339732
       2        0.000000000000     0.000000000000    -0.406258339732


  -Two-electron contribution to gradient:
     Atom            X                  Y                   Z
    ------   -----------------  -----------------  -----------------
       1        0.000000000000     0.000000000000     2.990460960431
       2        0.000000000000     0.000000000000    -2.990460960431


  -Total gradient:
     Atom            X                  Y                   Z
    ------   -----------------  -----------------  -----------------
       1        0.000000000000     0.000000000000     0.001913164142
       2        0.000000000000     0.000000000000    -0.001913164142


			-----------------------------------------
			 OPTKING 2.0: for geometry optimizations 
			  - R.A. King,  Bethel University        
			-----------------------------------------

	Previous internal coordinate definitions found.
	---Fragment 1 Geometry and Gradient---
	 O           0.0000000000        0.0000000000       -0.1094390811
	 H           0.0000000000        0.0000000000        1.7368776352
	             0.0000000000        0.0000000000        0.0019131641
	             0.0000000000        0.0000000000       -0.0019131641

	---Fragment 1 Intrafragment Coordinates---
	 - Coordinate -           - BOHR/RAD -       - ANG/DEG -
	 R(1,2)           =         1.846317	       0.977029

	Current energy   :       -75.5860419115

	Energy change for the previous step:
		Projected    :        -0.0002518455
		Actual       :        -0.0009083327
	Energy ratio indicates good step: Trust radius increased to 1.000e+00.


	Performing BFGS update.
	Previous computed or guess Hessian on step 1.
	Steps to be used in Hessian update: 1
	Taking RFO optimization step.
	Going to follow RFO solution 1.
	Using RFO vector 1.
	Norm of target step-size    0.00349
	Projected energy change by RFO approximation:        -0.0000005912

	Back-transformation to cartesian coordinates...
	Successfully converged to displaced geometry.

	--- Internal Coordinate Step in ANG or DEG, aJ/ANG or AJ/DEG ---
	 ---------------------------------------------------------------------------
	   Coordinate                Previous        Force       Change         New 
	   ----------                --------       ------       ------       ------
	    1 R(1,2)          =      0.977029     0.015762     0.001845     0.978874
	 ---------------------------------------------------------------------------
	Successfully symmetrized geometry.

  ==> Convergence Check <==

  Measures of convergence in internal coordinates in au.
  Criteria marked as inactive (o), active & met (*), and active & unmet ( ).
  ---------------------------------------------------------------------------------------------
   Step     Total Energy     Delta E     MAX Force     RMS Force      MAX Disp      RMS Disp   
  ---------------------------------------------------------------------------------------------
    Convergence Criteria             o    2.00e-06 *    1.00e-06 *    6.00e-06 *    4.00e-06 *
  ---------------------------------------------------------------------------------------------
      2     -75.58604191   -9.08e-04 o    1.91e-03      1.91e-03      3.49e-03      3.49e-03    ~
  ---------------------------------------------------------------------------------------------

	Writing optimization data to binary file.
	Structure for next step:
	Cartesian Geometry (in Angstrom)
	    O     0.0000000000   0.0000000000  -0.0588353548
	    H     0.0000000000   0.0000000000   0.9200387460
			--------------------------
			 OPTKING Finished Execution 
			--------------------------

    Structure for next step:
    Molecular point group: c2v
    Full point group: C_inf_v

    Geometry (in Angstrom), charge = 0, multiplicity = 2:

    O       
    H             1          R1

    R1        =    0.9788741046

gradient() will perform analytic gradient computation.

*** tstart() called on c1-17.compute.lan
*** at Tue Feb 23 13:41:51 2021

   => Loading Basis Set <=

    Name: AUG-CC-PVDZ
    Role: ORBITAL
    Keyword: BASIS
    atoms 1 entry O          line   254 file /apps/gb/PSI4/1.4.0/share/psi4/basis/aug-cc-pvdz.gbs 
    atoms 2 entry H          line    40 file /apps/gb/PSI4/1.4.0/share/psi4/basis/aug-cc-pvdz.gbs 


         ---------------------------------------------------------
                                   SCF
               by Justin Turney, Rob Parrish, Andy Simmonett
                          and Daniel G. A. Smith
                              UHF Reference
                        1 Threads,   9536 MiB Core
         ---------------------------------------------------------

  ==> Geometry <==

    Molecular point group: c2v
    Full point group: C_inf_v

    Geometry (in Angstrom), charge = 0, multiplicity = 2:

       Center              X                  Y                   Z               Mass       
    ------------   -----------------  -----------------  -----------------  -----------------
         O            0.000000000000     0.000000000000    -0.058022050932    15.994914619570
         H            0.000000000000     0.000000000000     0.920852053709     1.007825032230

  Running in c2v symmetry.

  Rotational constants: A = ************  B =     18.55644  C =     18.55644 [cm^-1]
  Rotational constants: A = ************  B = 556308.06676  C = 556308.06676 [MHz]
  Nuclear repulsion =    4.324782589805304

  Charge       = 0
  Multiplicity = 2
  Electrons    = 9
  Nalpha       = 5
  Nbeta        = 4

  ==> Algorithm <==

  SCF Algorithm Type is PK.
  DIIS enabled.
  MOM disabled.
  Fractional occupation disabled.
  Guess Type is READ.
  Energy threshold   = 1.00e-10
  Density threshold  = 1.00e-10
  Integral threshold = 0.00e+00

  ==> Primary Basis <==

  Basis Set: AUG-CC-PVDZ
    Blend: AUG-CC-PVDZ
    Number of shells: 14
    Number of basis function: 32
    Number of Cartesian functions: 34
    Spherical Harmonics?: true
    Max angular momentum: 2

   => Loading Basis Set <=

    Name: AUG-CC-PVDZ
    Role: ORBITAL
    Keyword: BASIS
    atoms 1 entry O          line   254 file /apps/gb/PSI4/1.4.0/share/psi4/basis/aug-cc-pvdz.gbs 
    atoms 2 entry H          line    40 file /apps/gb/PSI4/1.4.0/share/psi4/basis/aug-cc-pvdz.gbs 

  Reading orbitals from file 180, no projection.

  ==> Pre-Iterations <==

   -------------------------------------------------------
    Irrep   Nso     Nmo     Nalpha   Nbeta   Ndocc  Nsocc
   -------------------------------------------------------
     A1        16      16       0       0       0       0
     A2         2       2       0       0       0       0
     B1         7       7       0       0       0       0
     B2         7       7       0       0       0       0
   -------------------------------------------------------
    Total      32      32       5       4       4       1
   -------------------------------------------------------

  ==> Integral Setup <==

  Using in-core PK algorithm.
   Calculation information:
      Number of atoms:                   2
      Number of AO shells:              14
      Number of primitives:             32
      Number of atomic orbitals:        34
      Number of basis functions:        32

      Integral cutoff                 1.00e-12
      Number of threads:                 1

  Performing in-core PK
  Using 279312 doubles for integral storage.
  We computed 5565 shell quartets total.
  Whereas there are 5565 unique shell quartets.

  ==> DiskJK: Disk-Based J/K Matrices <==

    J tasked:                  Yes
    K tasked:                  Yes
    wK tasked:                  No
    Memory [MiB]:             7152
    Schwarz Cutoff:          1E-12

    OpenMP threads:              1

  Minimum eigenvalue in the overlap matrix is 3.4771549967E-03.
  Using Symmetric Orthogonalization.

  SCF Guess: Orbitals guess was supplied from a previous computation.

  ==> Iterations <==

                        Total Energy        Delta E     RMS |[F,P]|

   @UHF iter   0:   -75.40184963495525   -7.54018e+01   2.65139e-04 
   @UHF iter   1:   -75.40331024967662   -1.46061e-03   3.29922e-05 DIIS
   @UHF iter   2:   -75.40331043003555   -1.80359e-07   1.02490e-05 DIIS
   @UHF iter   3:   -75.40331044530032   -1.52648e-08   2.80472e-06 DIIS
   @UHF iter   4:   -75.40331044779660   -2.49628e-09   1.16934e-06 DIIS
   @UHF iter   5:   -75.40331044843914   -6.42544e-10   5.32226e-07 DIIS
   @UHF iter   6:   -75.40331044865155   -2.12410e-10   2.06451e-07 DIIS
   @UHF iter   7:   -75.40331044868523   -3.36797e-11   4.50572e-08 DIIS
   @UHF iter   8:   -75.40331044868648   -1.25056e-12   5.39108e-09 DIIS
   @UHF iter   9:   -75.40331044868650   -1.42109e-14   1.17941e-09 DIIS
   @UHF iter  10:   -75.40331044868648    1.42109e-14   3.62476e-10 DIIS
   @UHF iter  11:   -75.40331044868645    2.84217e-14   1.05955e-10 DIIS
   @UHF iter  12:   -75.40331044868648   -2.84217e-14   1.59873e-11 DIIS
  Energy and wave function converged.


  ==> Post-Iterations <==

   @Spin Contamination Metric:   6.684796321E-03
   @S^2 Expected:                7.500000000E-01
   @S^2 Observed:                7.566847963E-01
   @S   Expected:                5.000000000E-01
   @S   Observed:                5.000000000E-01

    Orbital Energies [Eh]
    ---------------------

    Alpha Occupied:                                                       

       1A1   -20.652093     2A1    -1.390457     3A1    -0.681688  
       1B2    -0.656779     1B1    -0.561229  

    Alpha Virtual:                                                        

       4A1     0.035566     5A1     0.178375     2B2     0.185336  
       2B1     0.198270     6A1     0.224908     7A1     0.315057  
       3B2     0.385422     3B1     0.395680     8A1     0.623889  
       9A1     0.838073     1A2     0.956760    10A1     0.958439  
       4B2     1.086661     4B1     1.117036    11A1     1.316066  
       5B2     1.326853     5B1     1.385734    12A1     1.658589  
       6B2     2.008126     6B1     2.025709    13A1     2.475625  
      14A1     2.759090    15A1     3.484336     2A2     3.484492  
       7B2     3.590655     7B1     3.650929    16A1     4.082432  

    Beta Occupied:                                                        

       1A1   -20.611133     2A1    -1.232026     3A1    -0.637491  
       1B1    -0.511491  

    Beta Virtual:                                                         

       4A1     0.037057     1B2     0.064724     5A1     0.181900  
       2B1     0.201741     6A1     0.231733     2B2     0.258256  
       7A1     0.320206     3B1     0.395174     3B2     0.408257  
       8A1     0.638740     9A1     0.847880     1A2     0.995437  
      10A1     0.996504     4B1     1.119280     4B2     1.132083  
      11A1     1.331163     5B1     1.409003     5B2     1.497661  
      12A1     1.681772     6B2     2.015602     6B1     2.022229  
      13A1     2.507493    14A1     2.775041     2A2     3.584811  
      15A1     3.585511     7B1     3.669762     7B2     3.687594  
      16A1     4.116856  

    Final Occupation by Irrep:
             A1    A2    B1    B2 
    DOCC [     3,    0,    1,    0 ]
[...]
	total time  =          0 seconds =       0.00 minutes
Total time:
	user time   =     378.14 seconds =       6.30 minutes
	system time =     181.97 seconds =       3.03 minutes
	total time  =        567 seconds =       9.45 minutes
            **************************
            *                        *
            *        CCENERGY        *
            *                        *
            **************************

    Nuclear Rep. energy (wfn)     =    4.323825271465156
    SCF energy          (wfn)     =  -75.403300426654155
    Reference energy    (file100) =  -75.403300426654070

    Input parameters:
    -----------------
    Wave function   =     CCSD_T
    Reference wfn   =     UHF
    Brueckner       =     No
    Memory (Mbytes) =     10000.0
    Maxiter         =     50
    R_Convergence   =     1.0e-10
    E_Convergence   =     1.0e-10
    Restart         =     Yes
    DIIS            =     Yes
    AO Basis        =     NONE
    ABCD            =     NEW
    Cache Level     =     2
    Cache Type      =     LRU
    Print Level     =     1
    Num. of threads =     1
    # Amps to Print =     10
    Print MP2 Amps? =     No
    Analyze T2 Amps =     No
    Print Pair Ener =     No
    Local CC        =     No
    SCS-MP2         =     False
    SCSN-MP2        =     False
    SCS-CCSD        =     False

    Using old T1 amplitudes.
    Using old T2 amplitudes.
MP2 correlation energy -0.1644063603254104
                Solving CC Amplitude Equations
                ------------------------------
  Iter             Energy              RMS        T1Diag      D1Diag    New D1Diag    D2Diag
  ----     ---------------------    ---------   ----------  ----------  ----------   --------
     0        -0.179330406793104    0.000e+00    0.015371    0.000000    0.000000    0.000000
     1        -0.179330476338187    9.778e-07    0.015371    0.000000    0.000000    0.000000
     2        -0.179330481944646    2.449e-07    0.015371    0.000000    0.000000    0.000000
     3        -0.179330487917896    8.499e-08    0.015371    0.000000    0.000000    0.000000
     4        -0.179330488550435    3.339e-08    0.015371    0.000000    0.000000    0.000000
     5        -0.179330488993747    1.258e-08    0.015371    0.000000    0.000000    0.000000
     6        -0.179330488987170    5.227e-09    0.015371    0.000000    0.000000    0.000000
     7        -0.179330489033122    2.119e-09    0.015371    0.000000    0.000000    0.000000
     8        -0.179330489050310    6.203e-10    0.015371    0.000000    0.000000    0.000000
     9        -0.179330489055037    1.716e-10    0.015371    0.000000    0.000000    0.000000
    10        -0.179330489057226    5.167e-11    0.015371    0.000000    0.000000    0.000000

    Iterations converged.


    Largest TIA Amplitudes:
              3  15        -0.0205168023
              4  21        -0.0182974791
              3  16        -0.0116488018
              4  22        -0.0106271590
              2   3         0.0097178573
              2   1         0.0086670485
              1   2        -0.0064584271
              2   9        -0.0051759933
              4  24        -0.0040300595
              3  18        -0.0034406259

    Largest Tia Amplitudes:
              3  15        -0.0186654918
              3  16        -0.0114463293
              2   3         0.0075114222
              1   3        -0.0056918910
              1   6        -0.0055672159
              2   9        -0.0054270174
              2   1         0.0052709751
              1   9        -0.0050752414
              1   5        -0.0040556367
              2   8         0.0037305992

    Largest TIJAB Amplitudes:
      4   3  24  18        -0.0208206649
      4   3  13   6         0.0156763465
      4   2  24   7         0.0134958733
      3   2  18   7         0.0130251750
      4   3  24  15        -0.0118580343
      4   2  23   5        -0.0116841737
      4   3  14  11         0.0116489009
      3   2  17   5        -0.0109794219
      4   3  21  18        -0.0109367418
      4   2  24   3         0.0108396845

    Largest Tijab Amplitudes:
      3   2  17   5        -0.0125277916
      3   2  18   7         0.0124551934
      3   1  21  13         0.0104183402
      3   2  18   3         0.0104139348
      3   2  16   3         0.0094611685
      3   2  18   1         0.0092290627
      3   2  15   1         0.0091741323
      3   2  16   5         0.0091390872
      3   2  15   7         0.0085290851
      2   1  24  21        -0.0083136425

    Largest TIjAb Amplitudes:
      3   3  18  18        -0.0386588705
      2   2   5   5        -0.0284728557
      4   3  24  18        -0.0273451175
      2   2   7   7        -0.0220105010
      3   3  18  15        -0.0215043572
      3   3  15  18        -0.0208969410
      2   2   3   3        -0.0207258831
      3   3  15  15        -0.0191050739
      2   2   3   5        -0.0185363808
      3   1  13  21        -0.0184280261

    SCF energy       (wfn)                    =  -75.403300426654155
    Reference energy (file100)                =  -75.403300426654070

    Opposite-spin MP2 correlation energy      =   -0.124041562207316
    Same-spin MP2 correlation energy          =   -0.040364798118095
    MP2 correlation energy                    =   -0.164406360325410
      * MP2 total energy                      =  -75.567706786979485

    Opposite-spin CCSD correlation energy     =   -0.141132860146545
    Same-spin CCSD correlation energy         =   -0.038197628910682
    CCSD correlation energy                   =   -0.179330489057226
      * CCSD total energy                     =  -75.582630915711292

            **************************
            *                        *
            *        CCTRIPLES       *
            *                        *
            **************************


    Wave function   =    CCSD_T
    Reference wfn   =      UHF

    Nuclear Rep. energy (wfn)                =    4.323825271465156
    SCF energy          (wfn)                =  -75.403300426654155
    Reference energy    (file100)            =  -75.403300426654070
    CCSD energy         (file100)            =   -0.179330489057226
    Total CCSD energy   (file100)            =  -75.582630915711292

    Number of ijk index combinations:
    Spin Case AAA:                                 125
    Spin Case BBB:                                  64
    Spin Case AAB:                                 100
    Spin Case ABB:                                  80

    Number of abc index combinations:
    Spin Case AAA:                               19683
    Spin Case BBB:                               21952
    Spin Case AAB:                               20412
    Spin Case ABB:                               21168

    Computing (T) contributions to CC density...
    AAA (T) energy                             =   -0.000100256037350
    BBB (T) energy                             =   -0.000022202503369
    AAB (T) energy                             =   -0.001979566149265
    ABB (T) energy                             =   -0.001312690083629
    (T) energy                                   =   -0.003414714773613
      * CCSD(T) total energy                     =  -75.586045630484904


			**************************
			*                        *
			*         CCHBAR         *
			*                        *
			**************************


			**************************
			*        CCLAMBDA        *
			**************************


	Nuclear Rep. energy (wfn)     =    4.323825271465156
	Reference           (wfn)     =                    2
	SCF energy          (wfn)     =  -75.586045630484904
	Reference energy    (CC_INFO) =  -75.403300426654070

	Input parameters:
	-----------------
	Maxiter           =     50
	Convergence       = 1.0e-07
	Restart           =     No
	Cache Level       =     2
	Model III         =     No
	DIIS              =     Yes
	AO Basis          =     No
	ABCD              =     NEW
	Local CC          =     No
	Parameters for left-handed eigenvectors:
	    Irr   Root  Ground-State?    EOM energy        R0
	  1   0     0        Yes       0.0000000000   1.0000000000
	Labels for eigenvector 1:
	LIA 0 -1, Lia 0 -1, LIJAB 0 -1, Lijab 0 -1, LIjAb 0 -1, 2LIjAb - LIjbA 0 -1
	Symmetry of left-hand state: B2
	Symmetry of left-hand eigenvector: A1

	          Solving Lambda Equations
	          ------------------------
	Iter     PseudoEnergy or Norm         RMS  
	----     ---------------------     --------
	   0        -0.179413534337622    6.574e-08
	   1        -0.182594239191860    2.597e-02
	   2        -0.182099879464208    4.520e-03
	   3        -0.182109476939696    1.271e-03
	   4        -0.182123163309918    6.501e-04
	   5        -0.182135547594885    2.513e-04
	   6        -0.182140306250485    8.879e-05
	   7        -0.182140701660404    2.584e-05
	   8        -0.182140741728038    9.205e-06
	   9        -0.182140752640426    2.877e-06
	  10        -0.182140736250806    1.265e-06
	  11        -0.182140729671898    4.953e-07
	  12        -0.182140726589928    1.758e-07
	  13        -0.182140727738716    6.574e-08

	Largest LIA Amplitudes:
	          3  15        -0.0138316224
	          4  21        -0.0115051983
	          3  16        -0.0073989475
	          4  22        -0.0066715445
	          2   3         0.0058792744
	          2   1         0.0047691376
	          2   9        -0.0044740473
	          2   8         0.0041056811
	          1   2        -0.0037341462
	          1   9         0.0023504281

	Largest Lia Amplitudes:
	          3  15        -0.0106902126
	          3  16        -0.0065796033
	          1   6        -0.0057102109
	          1   9        -0.0054917704
	          2   9        -0.0048472004
	          1   4         0.0045620785
	          2   8         0.0044997943
	          1   3        -0.0044463865
	          2   7        -0.0043678644
	          1   5        -0.0042795537

	Largest LIJAB Amplitudes:
	  4   3  24  18        -0.0210418694
	  4   3  13   6         0.0170499799
	  4   2  24   7         0.0137295198
	  3   2  18   7         0.0132283292
	  4   2  23   5        -0.0125171308
	  4   3  24  15        -0.0124821335
	  3   2  17   5        -0.0118075187
	  4   3  21  15        -0.0116939201
	  4   3  14  11         0.0114696571
	  4   3  21  18        -0.0113531678

	Largest Lijab Amplitudes:
	  3   2  17   5        -0.0134353086
	  3   2  18   7         0.0126275200
	  3   2  16   3         0.0114587885
	  3   1  21  13         0.0110934998
	  3   2  15   1         0.0110708059
	  3   2  18   3         0.0107160532
	  3   2  16   5         0.0104009168
	  3   2  15   3         0.0098574361
	  3   2  18   1         0.0094356879
	  3   2  15   7         0.0087786814

	Largest LIjAb Amplitudes:
	  3   3  18  18        -0.0384009061
	  2   2   5   5        -0.0291600062
	  4   3  24  18        -0.0273521521
	  3   3  15  15        -0.0222576460
	  2   2   3   3        -0.0222527374
	  2   2   7   7        -0.0221609508
	  3   3  18  15        -0.0217258014
	  3   3  15  18        -0.0211598945
	  3   1  13  21        -0.0195565595
	  2   2   3   5        -0.0192451221

	Iterations converged.

	Overlap <L|e^T> =        0.94399743641

			**************************
			*                        *
			*        CCDENSITY       *
			*                        *
			**************************


	Input parameters:
	-----------------
	Wave function    = CCSD_T
	Reference wfn    =   UHF
	Dertype          = 1
	Tolerance        = 1.0e-14
	Cache Level      = 2
	AO Basis         = No
	OPDM Only        = No
	Relax OPDM       = Yes
	Compute Xi       = No
	Use Zeta         = No
	Xi connected     = Yes
	Compute NO       = No

	Nuclear Rep. energy (wfn)     =    4.323825271465156
	SCF energy          (wfn)     =  -75.586045630484904
	Reference energy    (file100) =  -75.403300426654070
	CCSD energy         (CC_INFO) =   -0.179330489057226
	(T) energy          (CC_INFO) =   -0.003414714773613
	Total CCSD(T) energy(CC_INFO) =  -75.586045630484904
	Number of States = 1

	Ground?  State     EOM Energy       R0
	  Yes     0 A1    0.0000000000   1.00000000
  Cartesian Displacement SALCs
  By SALC:
  Number of SALCs: 2, nirreps: A1
  Project out translations: False
  Project out rotations: False
	irrep = 0, ncomponent = 1
		0: atom 0, direction z, coef 1.000000
	irrep = 0, ncomponent = 1
		0: atom 1, direction z, coef 1.000000

  By Atomic Center:
  Number of atomic centers: 2
   Atomic Center 0:
	x component, size = 0
	y component, size = 0
	z component, size = 1
		0: salc 0, irrep 0, coef 1.000000
   Atomic Center 1:
	x component, size = 0
	y component, size = 0
	z component, size = 1
		0: salc 1, irrep 0, coef 1.000000

    Molecular point group: c2v
    Full point group: C_inf_v

    Geometry (in Bohr), charge = 0, multiplicity = 2:

       Center              X                  Y                   Z       
    ------------   -----------------  -----------------  -----------------
         O            0.000000000000     0.000000000000    -0.109670061670
         H            0.000000000000     0.000000000000     1.740543464024

	Presorting MO-basis TPDMs.
	Sorting File: MO TPDM (AA|AA) nbuckets = 1
	Sorting File: MO TPDM (AA|aa) nbuckets = 1
	Sorting File: MO TPDM (aa|aa) nbuckets = 1
	Starting first half-transformation.
	Sorting half-transformed TPDMs.
	First half integral transformation complete.


  -Nuclear Repulsion Energy 1st Derivatives:
     Atom            X                  Y                   Z
    ------   -----------------  -----------------  -----------------
       1        0.000000000000     0.000000000000     2.336933122270
       2        0.000000000000     0.000000000000    -2.336933122270


  -Core Hamiltonian Gradient:
     Atom            X                  Y                   Z
    ------   -----------------  -----------------  -----------------
       1        0.000000000000     0.000000000000    -5.724549480269
       2        0.000000000000     0.000000000000     5.724549480269


  -Lagrangian contribution to gradient:
     Atom            X                  Y                   Z
    ------   -----------------  -----------------  -----------------
       1        0.000000000000     0.000000000000     0.404985422413
       2        0.000000000000     0.000000000000    -0.404985422413


  -Two-electron contribution to gradient:
     Atom            X                  Y                   Z
    ------   -----------------  -----------------  -----------------
       1        0.000000000000     0.000000000000     2.982631170106
       2        0.000000000000     0.000000000000    -2.982631170106


  -Total gradient:
     Atom            X                  Y                   Z
    ------   -----------------  -----------------  -----------------
       1        0.000000000000     0.000000000000     0.000000234520
       2        0.000000000000     0.000000000000    -0.000000234520


			-----------------------------------------
			 OPTKING 2.0: for geometry optimizations 
			  - R.A. King,  Bethel University        
			-----------------------------------------

	Previous internal coordinate definitions found.
	---Fragment 1 Geometry and Gradient---
	 O           0.0000000000        0.0000000000       -0.1096700617
	 H           0.0000000000        0.0000000000        1.7405434640
	             0.0000000000        0.0000000000        0.0000002345
	             0.0000000000        0.0000000000       -0.0000002345

	---Fragment 1 Intrafragment Coordinates---
	 - Coordinate -           - BOHR/RAD -       - ANG/DEG -
	 R(1,2)           =         1.850214	       0.979091

	Current energy   :       -75.5860456305

	Energy change for the previous step:
		Projected    :        -0.0000000000
		Actual       :        -0.0000000000

	Performing BFGS update.
	Previous computed or guess Hessian on step 1.
	Denominators (dg)(dq) or (dq)(dq) are very small.
	 Skipping Hessian update for step 5.
	Denominators (dg)(dq) or (dq)(dq) are very small.
	 Skipping Hessian update for step 4.
	Denominators (dg)(dq) or (dq)(dq) are very small.
	 Skipping Hessian update for step 3.
	Steps to be used in Hessian update: 2 1
	Taking RFO optimization step.
	Going to follow RFO solution 1.
	Using RFO vector 1.
	Norm of target step-size    0.00000
	Projected energy change by RFO approximation:        -0.0000000000

	Back-transformation to cartesian coordinates...
	Successfully converged to displaced geometry.

	--- Internal Coordinate Step in ANG or DEG, aJ/ANG or AJ/DEG ---
	 ---------------------------------------------------------------------------
	   Coordinate                Previous        Force       Change         New 
	   ----------                --------       ------       ------       ------
	    1 R(1,2)          =      0.979091     0.000002     0.000000     0.979091
	 ---------------------------------------------------------------------------
	Successfully symmetrized geometry.

  ==> Convergence Check <==

  Measures of convergence in internal coordinates in au.
  Criteria marked as inactive (o), active & met (*), and active & unmet ( ).
  ---------------------------------------------------------------------------------------------
   Step     Total Energy     Delta E     MAX Force     RMS Force      MAX Disp      RMS Disp   
  ---------------------------------------------------------------------------------------------
    Convergence Criteria             o    2.00e-06 *    1.00e-06 *    6.00e-06 *    4.00e-06 *
  ---------------------------------------------------------------------------------------------
      6     -75.58604563   -1.35e-12 o    2.35e-07 *    2.35e-07 *    4.30e-07 *    4.30e-07 *  ~
  ---------------------------------------------------------------------------------------------


  **** Optimization is complete! (in 6 steps) ****

  ==> Optimization Summary <==

  Measures of convergence in internal coordinates in au.
  --------------------------------------------------------------------------------------------------------------- ~
   Step         Total Energy             Delta E       MAX Force       RMS Force        MAX Disp        RMS Disp  ~
  --------------------------------------------------------------------------------------------------------------- ~
      1     -75.585133578791    -75.585133578791      0.03211239      0.03211239      0.05504682      0.05504682  ~
      2     -75.586041911470     -0.000908332680      0.00191316      0.00191316      0.00348725      0.00348725  ~
      3     -75.586045589498     -0.000003678028      0.00019997      0.00019997      0.00036679      0.00036679  ~
      4     -75.586045630031     -0.000000040533      0.00002108      0.00002108      0.00003868      0.00003868  ~
      5     -75.586045630484     -0.000000000452      0.00000222      0.00000222      0.00000408      0.00000408  ~
      6     -75.586045630485     -0.000000000001      0.00000023      0.00000023      0.00000043      0.00000043  ~
  --------------------------------------------------------------------------------------------------------------- ~

	Writing optimization data to binary file.
	Final energy is    -75.5860456304849
	Final (previous) structure:
	Cartesian Geometry (in Angstrom)
	    O     0.0000000000   0.0000000000  -0.0580348971
	    H     0.0000000000   0.0000000000   0.9210559317
	Saving final (previous) structure.
			--------------------------
			 OPTKING Finished Execution 
			--------------------------

    Final optimized geometry and variables:
    Molecular point group: c2v
    Full point group: C_inf_v

    Geometry (in Angstrom), charge = 0, multiplicity = 2:

    O       
    H             1          R1

    R1        =    0.9790908327

	Removing binary optimization data file.
	Cleaning optimization helper files.

    Psi4 stopped on: Tuesday, 23 February 2021 01:49PM
    Psi4 wall time for execution: 0:11:16.70

*** Psi4 exiting successfully. Buy a developer a beer!
