
    -----------------------------------------------------------------------
          Psi4: An Open-Source Ab Initio Electronic Structure Package
                               Psi4 1.3.2 release

                         Git: Rev {HEAD} ecbda83 


    R. M. Parrish, L. A. Burns, D. G. A. Smith, A. C. Simmonett,
    A. E. DePrince III, E. G. Hohenstein, U. Bozkaya, A. Yu. Sokolov,
    R. Di Remigio, R. M. Richard, J. F. Gonthier, A. M. James,
    H. R. McAlexander, A. Kumar, M. Saitow, X. Wang, B. P. Pritchard,
    P. Verma, H. F. Schaefer III, K. Patkowski, R. A. King, E. F. Valeev,
    F. A. Evangelista, J. M. Turney, T. D. Crawford, and C. D. Sherrill,
    J. Chem. Theory Comput. 13(7) pp 3185--3197 (2017).
    (doi: 10.1021/acs.jctc.7b00174)


                         Additional Contributions by
    P. Kraus, H. Kruse, M. H. Lechner, M. C. Schieber, R. A. Shaw,
    A. Alenaizan, R. Galvelis, Z. L. Glick, S. Lehtola, and J. P. Misiewicz

    -----------------------------------------------------------------------


    Psi4 started on: Monday, 08 March 2021 05:45PM

    Process ID: 78314
    Host:       c4-19.compute.lan
    PSIDATADIR: /apps/gb/PSI4/1.3.2/share/psi4
    Memory:     500.0 MiB
    Threads:    12
    
  ==> Input File <==

--------------------------------------------------------------------------
memory 4 GB

molecule  {
0 3
O    0.000000000000    0.000000000000    1.270170376227
H    0.000000000000   -0.759829054300    1.861304178745
H   -0.000000000000    0.759829054300    1.861304178745
O    0.000000000000    0.000000000000   -1.504728545314
}
set {
basis aug-cc-pvtz
reference uhf
e_convergence 10
scf_type pk
freeze_core true
}

set ccenergy {
e_convergence 10
r_convergence 10
}

e = energy('ccsd(t)')

print_out('Stephenergy {}'.format(e))

--------------------------------------------------------------------------

  Memory set to   3.725 GiB by Python driver.

*** tstart() called on c4-19.compute.lan
*** at Mon Mar  8 17:45:47 2021

   => Loading Basis Set <=

    Name: AUG-CC-PVTZ
    Role: ORBITAL
    Keyword: BASIS
    atoms 1, 4 entry O          line   327 file /apps/gb/PSI4/1.3.2/share/psi4/basis/aug-cc-pvtz.gbs 
    atoms 2-3  entry H          line    36 file /apps/gb/PSI4/1.3.2/share/psi4/basis/aug-cc-pvtz.gbs 


         ---------------------------------------------------------
                                   SCF
               by Justin Turney, Rob Parrish, Andy Simmonett
                          and Daniel G. A. Smith
                              UHF Reference
                       12 Threads,   3814 MiB Core
         ---------------------------------------------------------

  ==> Geometry <==

    Molecular point group: c2v
    Full point group: C2v

    Geometry (in Angstrom), charge = 0, multiplicity = 3:

       Center              X                  Y                   Z               Mass       
    ------------   -----------------  -----------------  -----------------  -----------------
         O            0.000000000000     0.000000000000     1.270170376227    15.994914619570
         H            0.000000000000    -0.759829054300     1.861304178745     1.007825032230
         H           -0.000000000000     0.759829054300     1.861304178745     1.007825032230
         O            0.000000000000     0.000000000000    -1.504728545314    15.994914619570

  Running in c2v symmetry.

  Rotational constants: A =     14.48604  B =      0.24430  C =      0.24025 [cm^-1]
  Rotational constants: A = 434280.44127  B =   7323.90261  C =   7202.43744 [MHz]
  Nuclear repulsion =   23.801692490632753

  Charge       = 0
  Multiplicity = 3
  Electrons    = 18
  Nalpha       = 10
  Nbeta        = 8

  ==> Algorithm <==

  SCF Algorithm Type is PK.
  DIIS enabled.
  MOM disabled.
  Fractional occupation disabled.
  Guess Type is SAD.
  Energy threshold   = 1.00e-10
  Density threshold  = 1.00e-08
  Integral threshold = 0.00e+00

  ==> Primary Basis <==

  Basis Set: AUG-CC-PVTZ
    Blend: AUG-CC-PVTZ
    Number of shells: 46
    Number of basis function: 138
    Number of Cartesian functions: 160
    Spherical Harmonics?: true
    Max angular momentum: 3

  ==> Pre-Iterations <==

   -------------------------------------------------------
    Irrep   Nso     Nmo     Nalpha   Nbeta   Ndocc  Nsocc
   -------------------------------------------------------
     A1        54      54       0       0       0       0
     A2        17      17       0       0       0       0
     B1        29      29       0       0       0       0
     B2        38      38       0       0       0       0
   -------------------------------------------------------
    Total     138     138      10       8       8       2
   -------------------------------------------------------

  ==> Integral Setup <==

  Using in-core PK algorithm.
   Calculation information:
      Number of atoms:                   4
      Number of AO shells:              46
      Number of primitives:             82
      Number of atomic orbitals:       160
      Number of basis functions:       138

      Integral cutoff                 1.00e-12
      Number of threads:                12

  Performing in-core PK
  Using 91996872 doubles for integral storage.
  We computed 909453 shell quartets total.
  Whereas there are 584821 unique shell quartets.
    55.51 percent of shell quartets recomputed by reordering.

  ==> DiskJK: Disk-Based J/K Matrices <==

    J tasked:                  Yes
    K tasked:                  Yes
    wK tasked:                  No
    Memory [MiB]:             2861
    Schwarz Cutoff:          1E-12

    OpenMP threads:             12

  Minimum eigenvalue in the overlap matrix is 3.2486506881E-04.
  Using Symmetric Orthogonalization.

  SCF Guess: Superposition of Atomic Densities via on-the-fly atomic UHF.

  ==> Iterations <==

                        Total Energy        Delta E     RMS |[F,P]|

   @UHF iter SAD:  -149.38030518594269   -1.49380e+02   0.00000e+00 
   @UHF iter   1:  -150.76972511561596   -1.38942e+00   6.69648e-03 DIIS
   @UHF iter   2:  -150.84046325722309   -7.07381e-02   4.26325e-03 DIIS
   @UHF iter   3:  -150.87187680373455   -3.14135e-02   5.59196e-04 DIIS
   @UHF iter   4:  -150.87325294187926   -1.37614e-03   1.71296e-04 DIIS
   @UHF iter   5:  -150.87338740872272   -1.34467e-04   6.98608e-05 DIIS
   @UHF iter   6:  -150.87342057457064   -3.31658e-05   2.08706e-05 DIIS
   @UHF iter   7:  -150.87342368014799   -3.10558e-06   5.37106e-06 DIIS
   @UHF iter   8:  -150.87342390578175   -2.25634e-07   1.49589e-06 DIIS
   @UHF iter   9:  -150.87342392285711   -1.70754e-08   3.72249e-07 DIIS
   @UHF iter  10:  -150.87342392397866   -1.12155e-09   1.79499e-07 DIIS
   @UHF iter  11:  -150.87342392433152   -3.52856e-10   7.00529e-08 DIIS
   @UHF iter  12:  -150.87342392438651   -5.49960e-11   1.50133e-08 DIIS
   @UHF iter  13:  -150.87342392438842   -1.90425e-12   4.49773e-09 DIIS
  Energy and wave function converged.


  ==> Post-Iterations <==

   @Spin Contamination Metric:   9.529954643E-03
   @S^2 Expected:                2.000000000E+00
   @S^2 Observed:                2.009529955E+00
   @S   Expected:                1.000000000E+00
   @S   Observed:                1.000000000E+00

    Orbital Energies [Eh]
    ---------------------

    Alpha Occupied:                                                       

       1A1   -20.684525     2A1   -20.571457     3A1    -1.393942  
       4A1    -1.354840     1B2    -0.717806     5A1    -0.688191  
       1B1    -0.685246     6A1    -0.586557     2B2    -0.586255  
       2B1    -0.513924  

    Alpha Virtual:                                                        

       7A1     0.029525     3B2     0.047675     8A1     0.118621  
       3B1     0.154106     9A1     0.159404     4B2     0.180279  
       5B2     0.186936     4B1     0.192781    10A1     0.198032  
       1A2     0.263766     6B2     0.263895    11A1     0.264764  
      12A1     0.314307     5B1     0.326477    13A1     0.376000  
       7B2     0.380379    14A1     0.449824     8B2     0.464125  
       9B2     0.599870     6B1     0.643745    15A1     0.647482  
       2A2     0.658147    16A1     0.666402    17A1     0.696153  
       3A2     0.721872    10B2     0.722376     7B1     0.767377  
      18A1     0.792531    19A1     0.818407     8B1     0.837842  
      20A1     0.860980     9B1     0.901184    11B2     0.918506  
       4A2     0.924640    12B2     0.946246    13B2     0.979552  
      21A1     0.989213    10B1     1.012548    22A1     1.045995  
      14B2     1.051094    11B1     1.121534     5A2     1.176620  
      23A1     1.191426    15B2     1.198724    16B2     1.326834  
      24A1     1.336965    25A1     1.442570     6A2     1.506818  
      12B1     1.592997    26A1     1.665936    27A1     1.813242  
      17B2     1.822561    18B2     1.975058    28A1     2.040730  
      13B1     2.047728    19B2     2.054046     7A2     2.056749  
      14B1     2.058890    29A1     2.079005    30A1     2.114912  
       8A2     2.118693    20B2     2.135029    31A1     2.139349  
      15B1     2.145179    32A1     2.252159    21B2     2.266986  
      16B1     2.303391     9A2     2.311524    17B1     2.433892  
      33A1     2.470004    22B2     2.483023    34A1     2.485954  
      35A1     2.695172    18B1     2.715934    23B2     2.720635  
      36A1     2.839977    24B2     2.860789    10A2     2.879551  
      25B2     3.689028    37A1     3.750380    11A2     4.012979  
      19B1     4.078143    20B1     4.099091    38A1     4.137948  
      26B2     4.183035    27B2     4.280274    21B1     4.286900  
      39A1     4.350347    12A2     4.381027    40A1     4.426004  
      22B1     4.450210    28B2     4.515305    41A1     4.787956  
      29B2     4.837516    13A2     5.140678    30B2     5.141006  
      31B2     5.244112    42A1     5.335237    23B1     5.513238  
      43A1     5.679912    44A1     6.198387    24B1     6.388863  
      45A1     6.408745    14A2     6.410136    32B2     6.423569  
      25B1     6.435479    33B2     6.485231    46A1     6.535332  
      34B2     6.581749    26B1     6.715816    27B1     6.902245  
      47A1     6.905459    15A2     6.924507    48A1     6.939645  
      35B2     6.985648    49A1     7.046729    28B1     7.133207  
      29B1     7.277235    36B2     7.303018    16A2     7.303897  
      17A2     7.351560    50A1     7.438585    51A1     7.538583  
      52A1     7.904633    37B2     7.913078    38B2     8.799898  
      53A1     8.859784    54A1    15.734952  

    Beta Occupied:                                                        

       1A1   -20.605660     2A1   -20.570997     3A1    -1.354154  
       4A1    -1.051138     1B2    -0.717478     5A1    -0.588290  
       1B1    -0.513266     2B2    -0.495676  

    Beta Virtual:                                                         

       6A1     0.029363     3B2     0.047756     2B1     0.086514  
       7A1     0.091923     8A1     0.140939     9A1     0.167023  
       3B1     0.170703     4B2     0.180921     5B2     0.190510  
      10A1     0.225521     4B1     0.253280     1A2     0.263769  
       6B2     0.264343    11A1     0.288393    12A1     0.316660  
       5B1     0.327784     7B2     0.380551    13A1     0.386393  
      14A1     0.450927     8B2     0.464320     9B2     0.601481  
      15A1     0.660489     6B1     0.667592     2A2     0.672565  
      16A1     0.673544    17A1     0.713394     3A2     0.722342  
      10B2     0.734591     7B1     0.778621    18A1     0.805794  
       8B1     0.846914    19A1     0.850424     4A2     0.925025  
      20A1     0.928178    11B2     0.936284    12B2     0.953275  
      13B2     0.983272     9B1     0.986573    21A1     0.996335  
      22A1     1.052134    14B2     1.052221    10B1     1.060419  
      11B1     1.137559     5A2     1.176817    23A1     1.192915  
      15B2     1.201471    16B2     1.329218    24A1     1.393631  
      25A1     1.481881     6A2     1.507236    12B1     1.594968  
      26A1     1.696175    27A1     1.818252    17B2     1.822899  
      18B2     1.976414    28A1     2.070183    13B1     2.070820  
      19B2     2.071476     7A2     2.081388    29A1     2.099156  
      14B1     2.100205    30A1     2.154908    20B2     2.180697  
       8A2     2.201913    31A1     2.207579    15B1     2.258284  
      32A1     2.308954     9A2     2.311660    21B2     2.318820  
      16B1     2.319267    17B1     2.441676    33A1     2.482962  
      22B2     2.485927    34A1     2.514625    35A1     2.702415  
      18B1     2.717634    23B2     2.721531    36A1     2.852194  
      24B2     2.860978    10A2     2.879584    25B2     3.689888  
      37A1     3.750511    11A2     4.013007    19B1     4.080361  
      38A1     4.169687    26B2     4.218344    20B1     4.258993  
      27B2     4.291455    21B1     4.292190    12A2     4.381132  
      39A1     4.425079    22B1     4.455355    40A1     4.467338  
      28B2     4.515380    41A1     4.798737    29B2     4.837673  
      13A2     5.140752    30B2     5.141181    31B2     5.244517  
      42A1     5.335892    23B1     5.513349    43A1     5.684380  
      44A1     6.200032    24B1     6.485588    14A2     6.486965  
      32B2     6.487755    45A1     6.493016    25B1     6.499126  
      33B2     6.520688    46A1     6.606954    34B2     6.609818  
      26B1     6.722680    47A1     6.955065    15A2     7.038058  
      48A1     7.041893    27B1     7.084763    35B2     7.097506  
      28B1     7.133629    49A1     7.174033    29B1     7.281395  
      36B2     7.303203    16A2     7.304155    17A2     7.351978  
      50A1     7.441321    51A1     7.539682    52A1     7.905198  
      37B2     7.913425    38B2     8.800265    53A1     8.939209  
      54A1    15.735268  

    Final Occupation by Irrep:
             A1    A2    B1    B2 
    DOCC [     5,    0,    1,    2 ]
    SOCC [     1,    0,    1,    0 ]

  @UHF Final Energy:  -150.87342392438842

   => Energetics <=

    Nuclear Repulsion Energy =             23.8016924906327532
    One-Electron Energy =                -255.6708303353909173
    Two-Electron Energy =                  80.9957139203697523
    Total Energy =                       -150.8734239243884190

  UHF NO Occupations:
  HONO-2 :    5 A1 1.9970493
  HONO-1 :    6 A1 1.0000000
  HONO-0 :    2 B1 1.0000000
  LUNO+0 :    7 A1 0.0029507
  LUNO+1 :    3 B2 0.0017948
  LUNO+2 :    8 A1 0.0000215
  LUNO+3 :    9 A1 0.0000024


Computation Completed


Properties will be evaluated at   0.000000,   0.000000,   0.000000 [a0]

Properties computed using the SCF density matrix

  Nuclear Dipole Moment: [e a0]
     X:     0.0000      Y:     0.0000      Z:     3.4887

  Electronic Dipole Moment: [e a0]
     X:     0.0000      Y:     0.0000      Z:    -2.6509

  Dipole Moment: [e a0]
     X:     0.0000      Y:     0.0000      Z:     0.8378     Total:     0.8378

  Dipole Moment: [D]
     X:     0.0000      Y:     0.0000      Z:     2.1295     Total:     2.1295


*** tstop() called on c4-19.compute.lan at Mon Mar  8 17:45:51 2021
Module time:
	user time   =      44.54 seconds =       0.74 minutes
	system time =       0.91 seconds =       0.02 minutes
	total time  =          4 seconds =       0.07 minutes
Total time:
	user time   =      44.54 seconds =       0.74 minutes
	system time =       0.91 seconds =       0.02 minutes
	total time  =          4 seconds =       0.07 minutes
 MINTS: Wrapper to libmints.
   by Justin Turney

   Calculation information:
      Number of threads:                12
      Number of atoms:                   4
      Number of AO shells:              46
      Number of SO shells:              37
      Number of primitives:             82
      Number of atomic orbitals:       160
      Number of basis functions:       138

      Number of irreps:                  4
      Integral cutoff                 0.00e+00
      Number of functions per irrep: [  54   17   29   38 ]

 OEINTS: Overlap, kinetic, potential, dipole, and quadrupole integrals
         stored in file 35.

      Computing two-electron integrals...done
      Computed 11526174 non-zero two-electron integrals.
        Stored in file 33.


*** tstart() called on c4-19.compute.lan
*** at Mon Mar  8 17:45:53 2021


	Wfn Parameters:
	--------------------
	Wavefunction         = CCSD_T
	Number of irreps     = 4
	Number of MOs        = 138
	Number of active MOs = 136
	AO-Basis             = NONE
	Semicanonical        = false
	Reference            = UHF
	Print Level          = 1

	IRREP	# MOs	# FZDC	# DOCC	# SOCC	# VIRT	# FZVR
	-----	-----	------	------	------	------	------
	 A1	   54	    2	    3	    1	    48	    0
	 A2	   17	    0	    0	    0	    17	    0
	 B1	   29	    0	    1	    1	    27	    0
	 B2	   38	    0	    2	    0	    36	    0
	Transforming integrals...
	IWL integrals will be deleted.
	(OO|OO)...
	Presorting SO-basis two-electron integrals.
	Sorting File: SO Ints (nn|nn) nbuckets = 1
	Transforming the one-electron integrals and constructing Fock matrices
	Starting AA/AB first half-transformation.
	Sorting AA/AB half-transformed integrals.
	Starting BB first half-transformation.
	Sorting BB half-transformed integrals.
	First half integral transformation complete.
	Starting AA second half-transformation.
	Starting AB second half-transformation.
	Starting BB second half-transformation.
	Two-electron integral transformation complete.
	(OO|OV)...
	Starting AA second half-transformation.
	Starting AB second half-transformation.
	Starting BB second half-transformation.
	Two-electron integral transformation complete.
	(OO|VV)...
	Starting AA second half-transformation.
	Starting AB second half-transformation.
	Starting BB second half-transformation.
	Two-electron integral transformation complete.
	(OV|OO)...
	Starting AA/AB first half-transformation.
	Sorting AA/AB half-transformed integrals.
	Starting BB first half-transformation.
	Sorting BB half-transformed integrals.
	First half integral transformation complete.
	Starting AA second half-transformation.
	Starting AB second half-transformation.
	Starting BB second half-transformation.
	Two-electron integral transformation complete.
	(OV|OV)...
	Starting AA second half-transformation.
	Starting AB second half-transformation.
	Starting BB second half-transformation.
	Two-electron integral transformation complete.
	(OV|VV)...
	Starting AA second half-transformation.
	Starting AB second half-transformation.
	Starting BB second half-transformation.
	Two-electron integral transformation complete.
	(VV|OO)...
	Starting AA/AB first half-transformation.
	Sorting AA/AB half-transformed integrals.
	Starting BB first half-transformation.
	Sorting BB half-transformed integrals.
	First half integral transformation complete.
	Starting AA second half-transformation.
	Starting AB second half-transformation.
	Starting BB second half-transformation.
	Two-electron integral transformation complete.
	(VV|OV)...
	Starting AA second half-transformation.
	Starting AB second half-transformation.
	Starting BB second half-transformation.
	Two-electron integral transformation complete.
	(VV|VV)...
	Starting AA second half-transformation.
	Starting AB second half-transformation.
	Starting BB second half-transformation.
	Two-electron integral transformation complete.
	Frozen core energy     =   -126.36255414213281

	Size of irrep 0 of <AB|CD> integrals:      5.040 (MW) /     40.320 (MB)
	Size of irrep 1 of <AB|CD> integrals:      3.197 (MW) /     25.576 (MB)
	Size of irrep 2 of <AB|CD> integrals:      3.640 (MW) /     29.124 (MB)
	Size of irrep 3 of <AB|CD> integrals:      4.783 (MW) /     38.264 (MB)
	Total:                                    16.660 (MW) /    133.283 (MB)

	Size of irrep 0 of <ab|cd> integrals:      5.382 (MW) /     43.059 (MB)
	Size of irrep 1 of <ab|cd> integrals:      3.389 (MW) /     27.114 (MB)
	Size of irrep 2 of <ab|cd> integrals:      3.936 (MW) /     31.490 (MB)
	Size of irrep 3 of <ab|cd> integrals:      5.018 (MW) /     40.141 (MB)
	Total:                                    17.726 (MW) /    141.804 (MB)

	Size of irrep 0 of <Ab|Cd> integrals:     22.024 (MW) /    176.194 (MB)
	Size of irrep 1 of <Ab|Cd> integrals:     13.170 (MW) /    105.357 (MB)
	Size of irrep 2 of <Ab|Cd> integrals:     15.140 (MW) /    121.119 (MB)
	Size of irrep 3 of <Ab|Cd> integrals:     19.598 (MW) /    156.787 (MB)
	Total:                                    69.932 (MW) /    559.457 (MB)

	Size of irrep 0 of <IA|BC> integrals:      1.469 (MW) /     11.748 (MB)
	Size of irrep 1 of <IA|BC> integrals:      0.694 (MW) /      5.550 (MB)
	Size of irrep 2 of <IA|BC> integrals:      0.908 (MW) /      7.266 (MB)
	Size of irrep 3 of <IA|BC> integrals:      1.198 (MW) /      9.588 (MB)
	Total:                                     4.269 (MW) /     34.152 (MB)

	Size of irrep 0 of <ia|bc> integrals:      1.178 (MW) /      9.426 (MB)
	Size of irrep 1 of <ia|bc> integrals:      0.527 (MW) /      4.212 (MB)
	Size of irrep 2 of <ia|bc> integrals:      0.663 (MW) /      5.301 (MB)
	Size of irrep 3 of <ia|bc> integrals:      0.999 (MW) /      7.992 (MB)
	Total:                                     3.366 (MW) /     26.931 (MB)

	Size of irrep 0 of <Ia|Bc> integrals:      1.521 (MW) /     12.164 (MB)
	Size of irrep 1 of <Ia|Bc> integrals:      0.711 (MW) /      5.690 (MB)
	Size of irrep 2 of <Ia|Bc> integrals:      0.949 (MW) /      7.595 (MB)
	Size of irrep 3 of <Ia|Bc> integrals:      1.222 (MW) /      9.775 (MB)
	Total:                                     4.403 (MW) /     35.225 (MB)

	Size of irrep 0 of <iA|bC> integrals:      1.140 (MW) /      9.123 (MB)
	Size of irrep 1 of <iA|bC> integrals:      0.512 (MW) /      4.094 (MB)
	Size of irrep 2 of <iA|bC> integrals:      0.634 (MW) /      5.074 (MB)
	Size of irrep 3 of <iA|bC> integrals:      0.978 (MW) /      7.827 (MB)
	Total:                                     3.265 (MW) /     26.118 (MB)

	Size of irrep 0 of tIjAb amplitudes:       0.084 (MW) /      0.676 (MB)
	Size of irrep 1 of tIjAb amplitudes:       0.022 (MW) /      0.174 (MB)
	Size of irrep 2 of tIjAb amplitudes:       0.039 (MW) /      0.311 (MB)
	Size of irrep 3 of tIjAb amplitudes:       0.062 (MW) /      0.496 (MB)
	Total:                                     0.207 (MW) /      1.657 (MB)

	Nuclear Rep. energy          =     23.80169249063275
	SCF energy                   =   -150.87342392438842
	One-electron energy          =    -85.37836055720945
	Two-electron (AA) energy     =     10.35998653546330
	Two-electron (BB) energy     =      5.46447918591305
	Two-electron (AB) energy     =     21.24133256294386
	Two-electron energy          =     37.06579828432022
	Reference energy             =   -150.87342392438927

*** tstop() called on c4-19.compute.lan at Mon Mar  8 17:46:20 2021
Module time:
	user time   =      52.34 seconds =       0.87 minutes
	system time =       9.55 seconds =       0.16 minutes
	total time  =         27 seconds =       0.45 minutes
Total time:
	user time   =     102.73 seconds =       1.71 minutes
	system time =      10.87 seconds =       0.18 minutes
	total time  =         33 seconds =       0.55 minutes
            **************************
            *                        *
            *        CCENERGY        *
            *                        *
            **************************

    Nuclear Rep. energy (wfn)     =   23.801692490632753
    SCF energy          (wfn)     = -150.873423924388419
    Reference energy    (file100) = -150.873423924389272

    Input parameters:
    -----------------
    Wave function   =     CCSD_T
    Reference wfn   =     UHF
    Brueckner       =     No
    Memory (Mbytes) =     4000.0
    Maxiter         =     50
    R_Convergence   =     1.0e-10
    E_Convergence   =     1.0e-10
    Restart         =     Yes
    DIIS            =     Yes
    AO Basis        =     NONE
    ABCD            =     NEW
    Cache Level     =     2
    Cache Type      =     LRU
    Print Level     =     1
    Num. of threads =     12
    # Amps to Print =     10
    Print MP2 Amps? =     No
    Analyze T2 Amps =     No
    Print Pair Ener =     No
    Local CC        =     No
    SCS-MP2         =     False
    SCSN-MP2        =     False
    SCS-CCSD        =     False

MP2 correlation energy -0.4163726517618335
                Solving CC Amplitude Equations
                ------------------------------
  Iter             Energy              RMS        T1Diag      D1Diag    New D1Diag    D2Diag
  ----     ---------------------    ---------   ----------  ----------  ----------   --------
     0        -0.416372651761833    0.000e+00    0.000000    0.000000    0.000000    0.000000
     1        -0.427124160658680    5.705e-02    0.010592    0.000000    0.000000    0.000000
     2        -0.435232970651161    1.705e-02    0.011084    0.000000    0.000000    0.000000
     3        -0.437389271478498    8.783e-03    0.013008    0.000000    0.000000    0.000000
     4        -0.437262796873428    2.680e-03    0.013416    0.000000    0.000000    0.000000
     5        -0.437253287782710    1.394e-03    0.013609    0.000000    0.000000    0.000000
     6        -0.437282299569453    5.297e-04    0.013635    0.000000    0.000000    0.000000
     7        -0.437285272180320    2.146e-04    0.013629    0.000000    0.000000    0.000000
     8        -0.437286222031582    6.685e-05    0.013624    0.000000    0.000000    0.000000
     9        -0.437286906220714    2.387e-05    0.013624    0.000000    0.000000    0.000000
    10        -0.437286007296813    9.225e-06    0.013624    0.000000    0.000000    0.000000
    11        -0.437286173641126    4.002e-06    0.013623    0.000000    0.000000    0.000000
    12        -0.437286133897763    1.446e-06    0.013623    0.000000    0.000000    0.000000
    13        -0.437286141877292    7.307e-07    0.013623    0.000000    0.000000    0.000000
    14        -0.437286164429202    3.050e-07    0.013623    0.000000    0.000000    0.000000
    15        -0.437286166088948    1.111e-07    0.013623    0.000000    0.000000    0.000000
    16        -0.437286166656787    4.976e-08    0.013623    0.000000    0.000000    0.000000
    17        -0.437286167232949    1.920e-08    0.013623    0.000000    0.000000    0.000000
    18        -0.437286167089014    9.988e-09    0.013623    0.000000    0.000000    0.000000
    19        -0.437286166880423    3.949e-09    0.013623    0.000000    0.000000    0.000000
    20        -0.437286166869401    2.131e-09    0.013623    0.000000    0.000000    0.000000
    21        -0.437286166845816    8.145e-10    0.013623    0.000000    0.000000    0.000000
    22        -0.437286166844239    3.272e-10    0.013623    0.000000    0.000000    0.000000
    23        -0.437286166843270    1.698e-10    0.013623    0.000000    0.000000    0.000000
    24        -0.437286166843107    6.965e-11    0.013623    0.000000    0.000000    0.000000

    Iterations converged.


    Largest TIA Amplitudes:
              5  65        -0.0133576808
              5  67        -0.0111948624
              7  94         0.0103354184
              5  66        -0.0097635227
              4  65        -0.0074695117
              3   1         0.0074106572
              2   3         0.0072035412
              4  66         0.0071531155
              3   5        -0.0056217238
              3   6         0.0053623927

    Largest Tia Amplitudes:
              3  67        -0.0148790365
              2   2         0.0134013451
              3  69        -0.0108066034
              5  96         0.0079493877
              3  66        -0.0076745303
              2   1        -0.0067804930
              2   6        -0.0055979854
              2   7         0.0055803815
              1  25        -0.0054543539
              4 109         0.0054055228

    Largest TIJAB Amplitudes:
      7   4 100  71         0.0142839424
      7   4  55  23        -0.0135843661
      7   2 100  12        -0.0121398726
      4   2  71  12         0.0110368788
      6   5  50   9        -0.0086508866
      7   4  49  23         0.0082478763
      6   5  97  72        -0.0080854820
      7   4  94  71         0.0078284918
      7   4  55   8        -0.0076362851
      7   4 100  82        -0.0074244966

    Largest Tijab Amplitudes:
      5   1  66  56         0.0086756582
      5   1  66  50        -0.0085719988
      5   1  68  56         0.0081606919
      4   3  99  67        -0.0076669776
      5   1  68  50        -0.0074562092
      4   3  99  73        -0.0073294709
      4   2  99   2         0.0071970118
      4   2  99  12         0.0068630872
      4   2 100   9        -0.0067294295
      4   3  51  10        -0.0065176267

    Largest TIjAb Amplitudes:
      6   4  97  99        -0.0219385251
      7   5 100 103        -0.0218220612
      7   5 100 102         0.0188906152
      7   1  55  66        -0.0180654480
      7   5 100  96        -0.0170372630
      7   1  55  68        -0.0168448793
      4   1  23  66        -0.0167172664
      5   3  72  73        -0.0162651694
      4   1  23  68        -0.0155474479
      7   5  55  56        -0.0145653294

    SCF energy       (wfn)                    = -150.873423924388419
    Reference energy (file100)                = -150.873423924389272

    Opposite-spin MP2 correlation energy      =   -0.314508300586993
    Same-spin MP2 correlation energy          =   -0.101864351174841
    MP2 correlation energy                    =   -0.416372651761833
      * MP2 total energy                      = -151.289796576151105

    Opposite-spin CCSD correlation energy     =   -0.342172083014893
    Same-spin CCSD correlation energy         =   -0.095114083828215
    CCSD correlation energy                   =   -0.437286166843107
      * CCSD total energy                     = -151.310710091232380

            **************************
            *                        *
            *        CCTRIPLES       *
            *                        *
            **************************


    Wave function   =    CCSD_T
    Reference wfn   =      UHF

    Nuclear Rep. energy (wfn)                =   23.801692490632753
    SCF energy          (wfn)                = -150.873423924388419
    Reference energy    (file100)            = -150.873423924389272
    CCSD energy         (file100)            =   -0.437286166843107
    Total CCSD energy   (file100)            = -151.310710091232380

    Number of ijk index combinations:
    Spin Case AAA:                                  56
    Spin Case BBB:                                  20
    Spin Case AAB:                                 168
    Spin Case ABB:                                 120
    AAA (T) energy                             =   -0.000395884519724
    BBB (T) energy                             =   -0.000202287905388
    AAB (T) energy                             =   -0.006715698110336
    ABB (T) energy                             =   -0.004990868217043
    (T) energy                                   =   -0.012304738752490
      * CCSD(T) total energy                     = -151.323014829984857

Stephenergy -151.32301482998486
    Psi4 stopped on: Monday, 08 March 2021 05:47PM
    Psi4 wall time for execution: 0:01:28.44

*** Psi4 exiting successfully. Buy a developer a beer!
