
    -----------------------------------------------------------------------
          Psi4: An Open-Source Ab Initio Electronic Structure Package
                               Psi4 1.3.2 release

                         Git: Rev {HEAD} ecbda83 


    R. M. Parrish, L. A. Burns, D. G. A. Smith, A. C. Simmonett,
    A. E. DePrince III, E. G. Hohenstein, U. Bozkaya, A. Yu. Sokolov,
    R. Di Remigio, R. M. Richard, J. F. Gonthier, A. M. James,
    H. R. McAlexander, A. Kumar, M. Saitow, X. Wang, B. P. Pritchard,
    P. Verma, H. F. Schaefer III, K. Patkowski, R. A. King, E. F. Valeev,
    F. A. Evangelista, J. M. Turney, T. D. Crawford, and C. D. Sherrill,
    J. Chem. Theory Comput. 13(7) pp 3185--3197 (2017).
    (doi: 10.1021/acs.jctc.7b00174)


                         Additional Contributions by
    P. Kraus, H. Kruse, M. H. Lechner, M. C. Schieber, R. A. Shaw,
    A. Alenaizan, R. Galvelis, Z. L. Glick, S. Lehtola, and J. P. Misiewicz

    -----------------------------------------------------------------------


    Psi4 started on: Tuesday, 09 March 2021 03:46PM

    Process ID: 6344
    Host:       d3-17.compute.lan
    PSIDATADIR: /apps/gb/PSI4/1.3.2/share/psi4
    Memory:     500.0 MiB
    Threads:    12
    
  ==> Input File <==

--------------------------------------------------------------------------
memory 4 GB

molecule  {
0 3
O   -1.504262362686   -0.001191472503    0.000000000000 
H   -0.554378845086    0.156622512997    0.000000000000          
H   -1.897018928260    0.877850008164    0.000000000000
O    1.658722708283   -0.063989700812    0.000000000000
}
set {
basis aug-cc-pvtz
reference uhf
e_convergence 10
scf_type pk
freeze_core true
}

set ccenergy {
e_convergence 10
r_convergence 10
}

e = energy('ccsd(t)')

print_out('Stephenergy {}'.format(e))

--------------------------------------------------------------------------

  Memory set to   3.725 GiB by Python driver.

*** tstart() called on d3-17.compute.lan
*** at Tue Mar  9 15:46:33 2021

   => Loading Basis Set <=

    Name: AUG-CC-PVTZ
    Role: ORBITAL
    Keyword: BASIS
    atoms 1, 4 entry O          line   327 file /apps/gb/PSI4/1.3.2/share/psi4/basis/aug-cc-pvtz.gbs 
    atoms 2-3  entry H          line    36 file /apps/gb/PSI4/1.3.2/share/psi4/basis/aug-cc-pvtz.gbs 


         ---------------------------------------------------------
                                   SCF
               by Justin Turney, Rob Parrish, Andy Simmonett
                          and Daniel G. A. Smith
                              UHF Reference
                       12 Threads,   3814 MiB Core
         ---------------------------------------------------------

  ==> Geometry <==

    Molecular point group: cs
    Full point group: Cs

    Geometry (in Angstrom), charge = 0, multiplicity = 3:

       Center              X                  Y                   Z               Mass       
    ------------   -----------------  -----------------  -----------------  -----------------
         O           -1.504262362686    -0.001191472503     0.000000000000    15.994914619570
         H           -0.554378845086     0.156622512997     0.000000000000     1.007825032230
         H           -1.897018928260     0.877850008164     0.000000000000     1.007825032230
         O            1.658722708283    -0.063989700812     0.000000000000    15.994914619570

  Running in cs symmetry.

  Rotational constants: A =     23.23771  B =      0.20002  C =      0.19831 [cm^-1]
  Rotational constants: A = 696649.12819  B =   5996.48628  C =   5945.31134 [MHz]
  Nuclear repulsion =   22.900374788939054

  Charge       = 0
  Multiplicity = 3
  Electrons    = 18
  Nalpha       = 10
  Nbeta        = 8

  ==> Algorithm <==

  SCF Algorithm Type is PK.
  DIIS enabled.
  MOM disabled.
  Fractional occupation disabled.
  Guess Type is SAD.
  Energy threshold   = 1.00e-10
  Density threshold  = 1.00e-08
  Integral threshold = 0.00e+00

  ==> Primary Basis <==

  Basis Set: AUG-CC-PVTZ
    Blend: AUG-CC-PVTZ
    Number of shells: 46
    Number of basis function: 138
    Number of Cartesian functions: 160
    Spherical Harmonics?: true
    Max angular momentum: 3

  ==> Pre-Iterations <==

   -------------------------------------------------------
    Irrep   Nso     Nmo     Nalpha   Nbeta   Ndocc  Nsocc
   -------------------------------------------------------
     A'        92      92       0       0       0       0
     A"        46      46       0       0       0       0
   -------------------------------------------------------
    Total     138     138      10       8       8       2
   -------------------------------------------------------

  ==> Integral Setup <==

  Using in-core PK algorithm.
   Calculation information:
      Number of atoms:                   4
      Number of AO shells:              46
      Number of primitives:             82
      Number of atomic orbitals:       160
      Number of basis functions:       138

      Integral cutoff                 1.00e-12
      Number of threads:                12

  Performing in-core PK
  Using 91996872 doubles for integral storage.
  We computed 901803 shell quartets total.
  Whereas there are 584821 unique shell quartets.
    54.20 percent of shell quartets recomputed by reordering.

  ==> DiskJK: Disk-Based J/K Matrices <==

    J tasked:                  Yes
    K tasked:                  Yes
    wK tasked:                  No
    Memory [MiB]:             2861
    Schwarz Cutoff:          1E-12

    OpenMP threads:             12

  Minimum eigenvalue in the overlap matrix is 2.9536275955E-04.
  Using Symmetric Orthogonalization.

  SCF Guess: Superposition of Atomic Densities via on-the-fly atomic UHF.

  ==> Iterations <==

                        Total Energy        Delta E     RMS |[F,P]|

   @UHF iter SAD:  -149.39991960117834   -1.49400e+02   0.00000e+00 
   @UHF iter   1:  -150.76370284089242   -1.36378e+00   5.04838e-03 DIIS
   @UHF iter   2:  -150.83789379987007   -7.41910e-02   3.28020e-03 DIIS
   @UHF iter   3:  -150.87308186626535   -3.51881e-02   3.93301e-04 DIIS
   @UHF iter   4:  -150.87419828095631   -1.11641e-03   1.30827e-04 DIIS
   @UHF iter   5:  -150.87432568859469   -1.27408e-04   5.12425e-05 DIIS
   @UHF iter   6:  -150.87436006947334   -3.43809e-05   1.54486e-05 DIIS
   @UHF iter   7:  -150.87436392276331   -3.85329e-06   5.62345e-06 DIIS
   @UHF iter   8:  -150.87436480256991   -8.79807e-07   4.48601e-06 DIIS
   @UHF iter   9:  -150.87436555610140   -7.53531e-07   4.37048e-06 DIIS
   @UHF iter  10:  -150.87436671830829   -1.16221e-06   4.31179e-06 DIIS
   @UHF iter  11:  -150.87437345208133   -6.73377e-06   4.02282e-06 DIIS
   @UHF iter  12:  -150.87439076688648   -1.73148e-05   3.78124e-06 DIIS
   @UHF iter  13:  -150.87439244429078   -1.67740e-06   3.31472e-06 DIIS
   @UHF iter  14:  -150.87440993208588   -1.74878e-05   8.41327e-06 DIIS
   @UHF iter  15:  -150.87440986427816    6.78077e-08   6.25432e-06 DIIS
   @UHF iter  16:  -150.87441156087158   -1.69659e-06   6.27849e-06 DIIS
   @UHF iter  17:  -150.87441177785982   -2.16988e-07   2.70641e-06 DIIS
   @UHF iter  18:  -150.87441185752226   -7.96624e-08   1.17133e-06 DIIS
   @UHF iter  19:  -150.87441186893187   -1.14096e-08   1.02606e-07 DIIS
   @UHF iter  20:  -150.87441186886667    6.51994e-11   1.57380e-07 DIIS
   @UHF iter  21:  -150.87441186900014   -1.33468e-10   5.53756e-09 DIIS
   @UHF iter  22:  -150.87441186900190   -1.76215e-12   9.69875e-10 DIIS
  Energy and wave function converged.


  ==> Post-Iterations <==

   @Spin Contamination Metric:   9.373491688E-03
   @S^2 Expected:                2.000000000E+00
   @S^2 Observed:                2.009373492E+00
   @S   Expected:                1.000000000E+00
   @S   Observed:                1.000000000E+00

    Orbital Energies [Eh]
    ---------------------

    Alpha Occupied:                                                       

       1Ap   -20.733022     2Ap   -20.558846     3Ap    -1.442352  
       4Ap    -1.342469     5Ap    -0.733125     1App   -0.732748  
       6Ap    -0.710101     7Ap    -0.634390     8Ap    -0.574591  
       2App   -0.501812  

    Alpha Virtual:                                                        

       9Ap     0.034198    10Ap     0.053475    11Ap     0.128205  
       3App    0.132947    12Ap     0.148137    13Ap     0.160730  
      14Ap     0.183907     4App    0.186829    15Ap     0.214121  
      16Ap     0.241987    17Ap     0.264184     5App    0.286430  
      18Ap     0.304015     6App    0.320695    19Ap     0.364303  
      20Ap     0.406275    21Ap     0.460213    22Ap     0.568687  
       7App    0.602647    23Ap     0.608708    24Ap     0.627046  
      25Ap     0.681828     8App    0.709382    26Ap     0.714809  
       9App    0.736707    10App    0.748680    27Ap     0.750615  
      28Ap     0.811486    11App    0.826043    29Ap     0.836873  
      12App    0.890859    30Ap     0.891882    31Ap     0.922900  
      32Ap     0.944975    13App    0.947888    33Ap     0.951191  
      14App    0.971398    34Ap     0.978964    35Ap     1.042790  
      36Ap     1.135990    15App    1.153347    37Ap     1.169881  
      38Ap     1.185096    39Ap     1.260524    16App    1.295133  
      40Ap     1.316395    17App    1.527025    41Ap     1.588126  
      18App    1.597989    42Ap     1.715605    43Ap     1.809171  
      44Ap     1.841843    45Ap     1.977198    19App    1.977767  
      46Ap     1.978030    20App    2.013231    47Ap     2.017980  
      21App    2.048361    48Ap     2.060568    22App    2.122581  
      49Ap     2.152467    50Ap     2.175781    23App    2.212604  
      24App    2.302585    51Ap     2.311032    52Ap     2.338656  
      53Ap     2.414803    25App    2.441074    54Ap     2.457980  
      55Ap     2.490637    26App    2.526487    56Ap     2.629538  
      57Ap     2.709788    27App    2.727703    58Ap     2.736230  
      59Ap     2.860104    60Ap     2.933771    28App    2.942842  
      61Ap     3.694103    62Ap     3.891334    29App    4.034895  
      30App    4.062749    63Ap     4.074298    31App    4.177314  
      64Ap     4.209421    65Ap     4.263231    32App    4.303320  
      33App    4.390768    66Ap     4.409281    34App    4.428962  
      67Ap     4.445253    68Ap     4.601302    69Ap     4.776872  
      70Ap     4.955298    35App    5.153957    71Ap     5.168058  
      72Ap     5.298335    73Ap     5.387302    36App    5.522643  
      74Ap     5.691481    75Ap     6.186475    37App    6.312407  
      76Ap     6.312438    38App    6.375484    77Ap     6.378210  
      39App    6.518112    78Ap     6.519894    79Ap     6.559715  
      80Ap     6.637076    40App    6.735597    81Ap     6.814431  
      41App    6.820065    82Ap     6.918670    42App    6.936864  
      83Ap     6.960967    84Ap     7.050884    43App    7.147785  
      44App    7.271022    45App    7.323586    85Ap     7.325762  
      86Ap     7.363245    46App    7.435222    87Ap     7.645824  
      88Ap     7.946207    89Ap     7.957364    90Ap     8.805309  
      91Ap     9.515026    92Ap    16.281736  

    Beta Occupied:                                                        

       1Ap   -20.654237     2Ap   -20.558975     3Ap    -1.343042  
       4Ap    -1.099885     5Ap    -0.709302     6Ap    -0.579557  
       7Ap    -0.541162     1App   -0.501856  

    Beta Virtual:                                                         

       8Ap     0.034357     2App    0.049403     9Ap     0.049645  
      10Ap     0.055178    11Ap     0.143825    12Ap     0.152974  
       3App    0.161233    13Ap     0.177997    14Ap     0.207809  
      15Ap     0.225539     4App    0.227227    16Ap     0.250692  
      17Ap     0.265433     5App    0.286638    18Ap     0.306157  
       6App    0.324429    19Ap     0.368201    20Ap     0.417134  
      21Ap     0.461499    22Ap     0.572257    23Ap     0.627828  
       7App    0.635043    24Ap     0.640423    25Ap     0.686626  
      26Ap     0.715477     8App    0.721447     9App    0.739845  
      10App    0.750392    27Ap     0.767055    28Ap     0.817880  
      29Ap     0.867806    11App    0.868979    30Ap     0.919977  
      12App    0.941676    31Ap     0.941777    13App    0.949957  
      32Ap     0.952575    33Ap     0.970344    34Ap     1.017545  
      14App    1.020090    35Ap     1.045058    15App    1.156471  
      36Ap     1.163782    37Ap     1.173173    38Ap     1.216264  
      39Ap     1.263756    16App    1.305738    40Ap     1.325037  
      17App    1.527727    41Ap     1.590349    18App    1.599435  
      42Ap     1.741891    43Ap     1.814400    44Ap     1.852729  
      45Ap     1.985317    46Ap     2.015730    19App    2.015742  
      20App    2.053686    47Ap     2.065359    21App    2.170733  
      48Ap     2.175985    22App    2.179617    49Ap     2.193677  
      50Ap     2.244540    23App    2.249818    24App    2.306029  
      51Ap     2.316531    52Ap     2.361424    53Ap     2.419200  
      25App    2.443791    54Ap     2.458815    55Ap     2.496936  
      26App    2.534940    56Ap     2.636701    57Ap     2.726984  
      27App    2.729016    58Ap     2.739430    59Ap     2.861942  
      60Ap     2.938202    28App    2.943470    61Ap     3.694789  
      62Ap     3.893685    29App    4.037750    30App    4.145938  
      63Ap     4.194442    64Ap     4.243354    31App    4.262570  
      65Ap     4.274805    32App    4.303372    33App    4.390837  
      66Ap     4.412784    34App    4.429633    67Ap     4.489682  
      68Ap     4.603894    69Ap     4.778514    70Ap     4.957304  
      35App    5.153944    71Ap     5.168353    72Ap     5.298569  
      73Ap     5.388534    36App    5.522704    74Ap     5.691826  
      75Ap     6.187725    76Ap     6.421259    37App    6.421264  
      38App    6.450676    77Ap     6.453443    78Ap     6.535290  
      39App    6.571981    79Ap     6.600184    80Ap     6.682011  
      40App    6.741542    81Ap     6.920253    41App    7.005169  
      82Ap     7.006735    42App    7.046062    83Ap     7.068172  
      84Ap     7.130663    43App    7.150323    44App    7.271242  
      45App    7.324327    85Ap     7.326064    86Ap     7.364038  
      46App    7.435633    87Ap     7.646683    88Ap     7.947159  
      89Ap     7.957769    90Ap     8.806819    91Ap     9.590065  
      92Ap    16.282008  

    Final Occupation by Irrep:
             Ap   App 
    DOCC [     7,    1 ]
    SOCC [     1,    1 ]

  @UHF Final Energy:  -150.87441186900190

   => Energetics <=

    Nuclear Repulsion Energy =             22.9003747889390539
    One-Electron Energy =                -253.5981013262487238
    Two-Electron Energy =                  79.8233146683077877
    Total Energy =                       -150.8744118690019036

  UHF NO Occupations:
  HONO-2 :    7 Ap 1.9970282
  HONO-1 :    8 Ap 1.0000000
  HONO-0 :    2App 1.0000000
  LUNO+0 :    9 Ap 0.0029718
  LUNO+1 :   10 Ap 0.0017160
  LUNO+2 :   11 Ap 0.0000024
  LUNO+3 :   12 Ap 0.0000017


Computation Completed


Properties will be evaluated at   0.000000,   0.000000,   0.000000 [a0]

Properties computed using the SCF density matrix

  Nuclear Dipole Moment: [e a0]
     X:    -2.2974      Y:     0.9695      Z:     0.0000

  Electronic Dipole Moment: [e a0]
     X:     2.7583      Y:    -0.2942      Z:     0.0000

  Dipole Moment: [e a0]
     X:     0.4610      Y:     0.6753      Z:     0.0000     Total:     0.8176

  Dipole Moment: [D]
     X:     1.1717      Y:     1.7164      Z:     0.0000     Total:     2.0782


*** tstop() called on d3-17.compute.lan at Tue Mar  9 15:46:38 2021
Module time:
	user time   =      52.58 seconds =       0.88 minutes
	system time =       2.28 seconds =       0.04 minutes
	total time  =          5 seconds =       0.08 minutes
Total time:
	user time   =      52.58 seconds =       0.88 minutes
	system time =       2.28 seconds =       0.04 minutes
	total time  =          5 seconds =       0.08 minutes
 MINTS: Wrapper to libmints.
   by Justin Turney

   Calculation information:
      Number of threads:                12
      Number of atoms:                   4
      Number of AO shells:              46
      Number of SO shells:              46
      Number of primitives:             82
      Number of atomic orbitals:       160
      Number of basis functions:       138

      Number of irreps:                  2
      Integral cutoff                 0.00e+00
      Number of functions per irrep: [  92   46 ]

 OEINTS: Overlap, kinetic, potential, dipole, and quadrupole integrals
         stored in file 35.

      Computing two-electron integrals...done
      Computed 22926636 non-zero two-electron integrals.
        Stored in file 33.


*** tstart() called on d3-17.compute.lan
*** at Tue Mar  9 15:46:42 2021


	Wfn Parameters:
	--------------------
	Wavefunction         = CCSD_T
	Number of irreps     = 2
	Number of MOs        = 138
	Number of active MOs = 136
	AO-Basis             = NONE
	Semicanonical        = false
	Reference            = UHF
	Print Level          = 1

	IRREP	# MOs	# FZDC	# DOCC	# SOCC	# VIRT	# FZVR
	-----	-----	------	------	------	------	------
	 Ap	   92	    2	    5	    1	    84	    0
	 App	   46	    0	    1	    1	    44	    0
	Transforming integrals...
	IWL integrals will be deleted.
	(OO|OO)...
	Presorting SO-basis two-electron integrals.
	Sorting File: SO Ints (nn|nn) nbuckets = 1
	Transforming the one-electron integrals and constructing Fock matrices
	Starting AA/AB first half-transformation.
	Sorting AA/AB half-transformed integrals.
	Starting BB first half-transformation.
	Sorting BB half-transformed integrals.
	First half integral transformation complete.
	Starting AA second half-transformation.
	Starting AB second half-transformation.
	Starting BB second half-transformation.
	Two-electron integral transformation complete.
	(OO|OV)...
	Starting AA second half-transformation.
	Starting AB second half-transformation.
	Starting BB second half-transformation.
	Two-electron integral transformation complete.
	(OO|VV)...
	Starting AA second half-transformation.
	Starting AB second half-transformation.
	Starting BB second half-transformation.
	Two-electron integral transformation complete.
	(OV|OO)...
	Starting AA/AB first half-transformation.
	Sorting AA/AB half-transformed integrals.
	Starting BB first half-transformation.
	Sorting BB half-transformed integrals.
	First half integral transformation complete.
	Starting AA second half-transformation.
	Starting AB second half-transformation.
	Starting BB second half-transformation.
	Two-electron integral transformation complete.
	(OV|OV)...
	Starting AA second half-transformation.
	Starting AB second half-transformation.
	Starting BB second half-transformation.
	Two-electron integral transformation complete.
	(OV|VV)...
	Starting AA second half-transformation.
	Starting AB second half-transformation.
	Starting BB second half-transformation.
	Two-electron integral transformation complete.
	(VV|OO)...
	Starting AA/AB first half-transformation.
	Sorting AA/AB half-transformed integrals.
	Starting BB first half-transformation.
	Sorting BB half-transformed integrals.
	First half integral transformation complete.
	Starting AA second half-transformation.
	Starting AB second half-transformation.
	Starting BB second half-transformation.
	Two-electron integral transformation complete.
	(VV|OV)...
	Starting AA second half-transformation.
	Starting AB second half-transformation.
	Starting BB second half-transformation.
	Two-electron integral transformation complete.
	(VV|VV)...
	Starting AA second half-transformation.
	Starting AB second half-transformation.
	Starting BB second half-transformation.
	Two-electron integral transformation complete.
	Frozen core energy     =   -125.85648954216300

	Size of irrep 0 of <AB|CD> integrals:     19.643 (MW) /    157.141 (MB)
	Size of irrep 1 of <AB|CD> integrals:     13.660 (MW) /    109.283 (MB)
	Total:                                    33.303 (MW) /    266.424 (MB)

	Size of irrep 0 of <ab|cd> integrals:     20.794 (MW) /    166.349 (MB)
	Size of irrep 1 of <ab|cd> integrals:     14.631 (MW) /    117.045 (MB)
	Total:                                    35.424 (MW) /    283.394 (MB)

	Size of irrep 0 of <Ab|Cd> integrals:     83.174 (MW) /    665.395 (MB)
	Size of irrep 1 of <Ab|Cd> integrals:     56.550 (MW) /    452.403 (MB)
	Total:                                   139.725 (MW) /   1117.798 (MB)

	Size of irrep 0 of <IA|BC> integrals:      5.323 (MW) /     42.586 (MB)
	Size of irrep 1 of <IA|BC> integrals:      3.193 (MW) /     25.547 (MB)
	Total:                                     8.517 (MW) /     68.133 (MB)

	Size of irrep 0 of <ia|bc> integrals:      4.348 (MW) /     34.780 (MB)
	Size of irrep 1 of <ia|bc> integrals:      2.372 (MW) /     18.972 (MB)
	Total:                                     6.719 (MW) /     53.752 (MB)

	Size of irrep 0 of <Ia|Bc> integrals:      5.472 (MW) /     43.776 (MB)
	Size of irrep 1 of <Ia|Bc> integrals:      3.309 (MW) /     26.470 (MB)
	Total:                                     8.781 (MW) /     70.246 (MB)

	Size of irrep 0 of <iA|bC> integrals:      4.232 (MW) /     33.853 (MB)
	Size of irrep 1 of <iA|bC> integrals:      2.286 (MW) /     18.289 (MB)
	Total:                                     6.518 (MW) /     52.142 (MB)

	Size of irrep 0 of tIjAb amplitudes:       0.292 (MW) /      2.335 (MB)
	Size of irrep 1 of tIjAb amplitudes:       0.120 (MW) /      0.963 (MB)
	Total:                                     0.412 (MW) /      3.297 (MB)

	Nuclear Rep. energy          =     22.90037478893905
	SCF energy                   =   -150.87441186900190
	One-electron energy          =    -84.39020280104543
	Two-electron (AA) energy     =     10.13567006213642
	Two-electron (BB) energy     =      5.39145154312640
	Two-electron (AB) energy     =     20.94478408000369
	Two-electron energy          =     36.47190568526651
	Reference energy             =   -150.87441186900287

*** tstop() called on d3-17.compute.lan at Tue Mar  9 15:47:25 2021
Module time:
	user time   =     264.95 seconds =       4.42 minutes
	system time =      20.72 seconds =       0.35 minutes
	total time  =         43 seconds =       0.72 minutes
Total time:
	user time   =     324.83 seconds =       5.41 minutes
	system time =      23.94 seconds =       0.40 minutes
	total time  =         52 seconds =       0.87 minutes
            **************************
            *                        *
            *        CCENERGY        *
            *                        *
            **************************

    Nuclear Rep. energy (wfn)     =   22.900374788939054
    SCF energy          (wfn)     = -150.874411869001904
    Reference energy    (file100) = -150.874411869002870

    Input parameters:
    -----------------
    Wave function   =     CCSD_T
    Reference wfn   =     UHF
    Brueckner       =     No
    Memory (Mbytes) =     4000.0
    Maxiter         =     50
    R_Convergence   =     1.0e-10
    E_Convergence   =     1.0e-10
    Restart         =     Yes
    DIIS            =     Yes
    AO Basis        =     NONE
    ABCD            =     NEW
    Cache Level     =     2
    Cache Type      =     LRU
    Print Level     =     1
    Num. of threads =     12
    # Amps to Print =     10
    Print MP2 Amps? =     No
    Analyze T2 Amps =     No
    Print Pair Ener =     No
    Local CC        =     No
    SCS-MP2         =     False
    SCSN-MP2        =     False
    SCS-CCSD        =     False

MP2 correlation energy -0.4166700017272413
                Solving CC Amplitude Equations
                ------------------------------
  Iter             Energy              RMS        T1Diag      D1Diag    New D1Diag    D2Diag
  ----     ---------------------    ---------   ----------  ----------  ----------   --------
     0        -0.416670001727241    0.000e+00    0.000000    0.000000    0.000000    0.000000
     1        -0.427371582077584    5.694e-02    0.010563    0.000000    0.000000    0.000000
     2        -0.435467652518592    1.691e-02    0.011040    0.000000    0.000000    0.000000
     3        -0.437593058522542    8.585e-03    0.012914    0.000000    0.000000    0.000000
     4        -0.437467203460106    2.537e-03    0.013281    0.000000    0.000000    0.000000
     5        -0.437452718321090    1.321e-03    0.013438    0.000000    0.000000    0.000000
     6        -0.437479943727508    5.152e-04    0.013460    0.000000    0.000000    0.000000
     7        -0.437484574674148    2.650e-04    0.013455    0.000000    0.000000    0.000000
     8        -0.437485179064213    9.975e-05    0.013450    0.000000    0.000000    0.000000
     9        -0.437486554363025    7.446e-05    0.013451    0.000000    0.000000    0.000000
    10        -0.437484992590128    6.434e-05    0.013452    0.000000    0.000000    0.000000
    11        -0.437485139275660    6.149e-05    0.013453    0.000000    0.000000    0.000000
    12        -0.437484849702738    5.980e-05    0.013456    0.000000    0.000000    0.000000
    13        -0.437484841603399    5.865e-05    0.013459    0.000000    0.000000    0.000000
    14        -0.437486021491289    5.676e-05    0.013477    0.000000    0.000000    0.000000
    15        -0.437486401230939    5.021e-05    0.013550    0.000000    0.000000    0.000000
    16        -0.437486177562302    3.355e-05    0.013691    0.000000    0.000000    0.000000
    17        -0.437485831720912    1.619e-05    0.013760    0.000000    0.000000    0.000000
    18        -0.437485701589801    7.597e-06    0.013778    0.000000    0.000000    0.000000
    19        -0.437485961187454    3.357e-06    0.013782    0.000000    0.000000    0.000000
    20        -0.437486072945319    1.504e-06    0.013783    0.000000    0.000000    0.000000
    21        -0.437486080881062    5.922e-07    0.013783    0.000000    0.000000    0.000000
    22        -0.437486082197600    2.808e-07    0.013783    0.000000    0.000000    0.000000
    23        -0.437486081105709    1.458e-07    0.013783    0.000000    0.000000    0.000000
    24        -0.437486080434239    6.050e-08    0.013783    0.000000    0.000000    0.000000
    25        -0.437486081400558    3.304e-08    0.013783    0.000000    0.000000    0.000000
    26        -0.437486081858835    2.564e-08    0.013783    0.000000    0.000000    0.000000
    27        -0.437486082016938    2.401e-08    0.013783    0.000000    0.000000    0.000000
    28        -0.437486081965004    2.326e-08    0.013783    0.000000    0.000000    0.000000
    29        -0.437486081800916    2.259e-08    0.013783    0.000000    0.000000    0.000000
    30        -0.437486081534538    2.149e-08    0.013783    0.000000    0.000000    0.000000
    31        -0.437486081733901    1.818e-08    0.013783    0.000000    0.000000    0.000000
    32        -0.437486082078312    9.530e-09    0.013784    0.000000    0.000000    0.000000
    33        -0.437486082180250    4.166e-09    0.013784    0.000000    0.000000    0.000000
    34        -0.437486082232319    1.704e-09    0.013784    0.000000    0.000000    0.000000
    35        -0.437486082239110    6.711e-10    0.013784    0.000000    0.000000    0.000000
    36        -0.437486082238847    2.872e-10    0.013784    0.000000    0.000000    0.000000
    37        -0.437486082236682    1.222e-10    0.013784    0.000000    0.000000    0.000000
    38        -0.437486082238142    5.800e-11    0.013784    0.000000    0.000000    0.000000

    Iterations converged.


    Largest TIA Amplitudes:
              7  87        -0.0121991480
              7  84        -0.0116421783
              7  85        -0.0094867655
              4   3         0.0090150813
              6  84        -0.0080648842
              5   9        -0.0076727587
              4  10         0.0070230621
              5   2        -0.0069973424
              2   2         0.0068875729
              7  86        -0.0062889337

    Largest Tia Amplitudes:
              5  86        -0.0123371674
              5  89        -0.0117812688
              5  85        -0.0098662735
              4   1        -0.0097998024
              3   3         0.0089891342
              3  10        -0.0070769355
              5  88        -0.0064791810
              5  87        -0.0060409610
              3  11         0.0058311333
              4   7        -0.0057290816

    Largest TIJAB Amplitudes:
      6   2  92  20        -0.0108438870
      6   2 101  38        -0.0097498578
      6   4  92  29        -0.0096445097
      6   2  92  21        -0.0088730889
      4   2  29  20        -0.0083508545
      4   2  41  40         0.0082950149
      6   2 102  38         0.0076317762
      4   2  29  21        -0.0074291394
      6   2 111  54        -0.0073293384
      6   2  88  38         0.0072565445

    Largest Tijab Amplitudes:
      4   1  42   1         0.0070291613
      4   1  91  85        -0.0067938391
      4   1  19   1         0.0064071876
      4   1 106  85        -0.0063043051
      5   2  94  13        -0.0062699714
      5   2  89  13        -0.0059104425
      5   2 100  17        -0.0057862868
      5   2  92  17         0.0057766743
      5   2  86  13        -0.0057486128
      3   2  18  15         0.0054277785

    Largest TIjAb Amplitudes:
      3   2  12  13        -0.0183604048
      2   1  38   1        -0.0169796617
      6   1  38  85        -0.0165232393
      4   4  29  30         0.0163654219
      4   1 103  85        -0.0151344983
      2   1 101  85         0.0146264617
      2   1  88  85        -0.0143870407
      4   1  41   1        -0.0143782207
      6   1 101   1        -0.0143517219
      6   1  88   1         0.0141354674

    SCF energy       (wfn)                    = -150.874411869001904
    Reference energy (file100)                = -150.874411869002870

    Opposite-spin MP2 correlation energy      =   -0.314679724910719
    Same-spin MP2 correlation energy          =   -0.101990276816522
    MP2 correlation energy                    =   -0.416670001727241
      * MP2 total energy                      = -151.291081870730125

    Opposite-spin CCSD correlation energy     =   -0.342227900695154
    Same-spin CCSD correlation energy         =   -0.095258181542988
    CCSD correlation energy                   =   -0.437486082238142
      * CCSD total energy                     = -151.311897951241008

            **************************
            *                        *
            *        CCTRIPLES       *
            *                        *
            **************************


    Wave function   =    CCSD_T
    Reference wfn   =      UHF

    Nuclear Rep. energy (wfn)                =   22.900374788939054
    SCF energy          (wfn)                = -150.874411869001904
    Reference energy    (file100)            = -150.874411869002870
    CCSD energy         (file100)            =   -0.437486082238142
    Total CCSD energy   (file100)            = -151.311897951241008

    Number of ijk index combinations:
    Spin Case AAA:                                  56
    Spin Case BBB:                                  20
    Spin Case AAB:                                 168
    Spin Case ABB:                                 120
    AAA (T) energy                             =   -0.000399579908392
    BBB (T) energy                             =   -0.000202711479980
    AAB (T) energy                             =   -0.006747048047905
    ABB (T) energy                             =   -0.005013445909760
    (T) energy                                   =   -0.012362785346036
      * CCSD(T) total energy                     = -151.324260736587036

Stephenergy -151.32426073658704
    Psi4 stopped on: Tuesday, 09 March 2021 03:49PM
    Psi4 wall time for execution: 0:03:22.33

*** Psi4 exiting successfully. Buy a developer a beer!
