
Host: ss-sub1.gacrc.uga.edu

Timers On : Wed Mar 10 10:55:06 2021
Timers Off: Wed Mar 10 11:00:46 2021

Wall Time:      340.49 seconds

                                                       Time (seconds)
Module                                       User      System        Wall        Calls

--------------------------------------------------------------------------------------

**************************************************************************************
