
    -----------------------------------------------------------------------
          Psi4: An Open-Source Ab Initio Electronic Structure Package
                               Psi4 1.3.2 release

                         Git: Rev {HEAD} ecbda83 


    R. M. Parrish, L. A. Burns, D. G. A. Smith, A. C. Simmonett,
    A. E. DePrince III, E. G. Hohenstein, U. Bozkaya, A. Yu. Sokolov,
    R. Di Remigio, R. M. Richard, J. F. Gonthier, A. M. James,
    H. R. McAlexander, A. Kumar, M. Saitow, X. Wang, B. P. Pritchard,
    P. Verma, H. F. Schaefer III, K. Patkowski, R. A. King, E. F. Valeev,
    F. A. Evangelista, J. M. Turney, T. D. Crawford, and C. D. Sherrill,
    J. Chem. Theory Comput. 13(7) pp 3185--3197 (2017).
    (doi: 10.1021/acs.jctc.7b00174)


                         Additional Contributions by
    P. Kraus, H. Kruse, M. H. Lechner, M. C. Schieber, R. A. Shaw,
    A. Alenaizan, R. Galvelis, Z. L. Glick, S. Lehtola, and J. P. Misiewicz

    -----------------------------------------------------------------------


    Psi4 started on: Monday, 08 March 2021 09:41AM

    Process ID: 110185
    Host:       c2-13.compute.lan
    PSIDATADIR: /apps/gb/PSI4/1.3.2/share/psi4
    Memory:     500.0 MiB
    Threads:    12
    
  ==> Input File <==

--------------------------------------------------------------------------
memory 4 GB

molecule  {
0 1
O    0.000000000000   -0.000000000000   -0.067553741000
H    0.000000000000   -0.753333404800    0.536063446000
H   -0.000000000000    0.753333404800    0.536063446000
}
set {
basis aug-cc-pvtz
reference uhf
e_convergence 10
scf_type pk
freeze_core true
}

set ccenergy {
e_convergence 10
r_convergence 10
}

e = energy('ccsd(t)')

print_out('Stephenergy {}'.format(e))

--------------------------------------------------------------------------

  Memory set to   3.725 GiB by Python driver.

*** tstart() called on c2-13.compute.lan
*** at Mon Mar  8 09:41:19 2021

   => Loading Basis Set <=

    Name: AUG-CC-PVTZ
    Role: ORBITAL
    Keyword: BASIS
    atoms 1   entry O          line   327 file /apps/gb/PSI4/1.3.2/share/psi4/basis/aug-cc-pvtz.gbs 
    atoms 2-3 entry H          line    36 file /apps/gb/PSI4/1.3.2/share/psi4/basis/aug-cc-pvtz.gbs 


         ---------------------------------------------------------
                                   SCF
               by Justin Turney, Rob Parrish, Andy Simmonett
                          and Daniel G. A. Smith
                              UHF Reference
                       12 Threads,   3814 MiB Core
         ---------------------------------------------------------

  ==> Geometry <==

    Molecular point group: c2v
    Full point group: C2v

    Geometry (in Angstrom), charge = 0, multiplicity = 1:

       Center              X                  Y                   Z               Mass       
    ------------   -----------------  -----------------  -----------------  -----------------
         O            0.000000000000     0.000000000000    -0.067553740998    15.994914619570
         H            0.000000000000    -0.753333404800     0.536063446002     1.007825032230
         H           -0.000000000000     0.753333404800     0.536063446002     1.007825032230

  Running in c2v symmetry.

  Rotational constants: A =     25.84661  B =     14.73693  C =      9.38557 [cm^-1]
  Rotational constants: A = 774861.83667  B = 441801.93261  C = 281372.27851 [MHz]
  Nuclear repulsion =    9.122133325941203

  Charge       = 0
  Multiplicity = 1
  Electrons    = 10
  Nalpha       = 5
  Nbeta        = 5

  ==> Algorithm <==

  SCF Algorithm Type is PK.
  DIIS enabled.
  MOM disabled.
  Fractional occupation disabled.
  Guess Type is SAD.
  Energy threshold   = 1.00e-10
  Density threshold  = 1.00e-08
  Integral threshold = 0.00e+00

  ==> Primary Basis <==

  Basis Set: AUG-CC-PVTZ
    Blend: AUG-CC-PVTZ
    Number of shells: 32
    Number of basis function: 92
    Number of Cartesian functions: 105
    Spherical Harmonics?: true
    Max angular momentum: 3

  ==> Pre-Iterations <==

   -------------------------------------------------------
    Irrep   Nso     Nmo     Nalpha   Nbeta   Ndocc  Nsocc
   -------------------------------------------------------
     A1        35      35       0       0       0       0
     A2        12      12       0       0       0       0
     B1        18      18       0       0       0       0
     B2        27      27       0       0       0       0
   -------------------------------------------------------
    Total      92      92       5       5       5       0
   -------------------------------------------------------

  ==> Integral Setup <==

  Using in-core PK algorithm.
   Calculation information:
      Number of atoms:                   3
      Number of AO shells:              32
      Number of primitives:             52
      Number of atomic orbitals:       105
      Number of basis functions:        92

      Integral cutoff                 1.00e-12
      Number of threads:                12

  Performing in-core PK
  Using 18305562 doubles for integral storage.
  We computed 240258 shell quartets total.
  Whereas there are 139656 unique shell quartets.
    72.04 percent of shell quartets recomputed by reordering.

  ==> DiskJK: Disk-Based J/K Matrices <==

    J tasked:                  Yes
    K tasked:                  Yes
    wK tasked:                  No
    Memory [MiB]:             2861
    Schwarz Cutoff:          1E-12

    OpenMP threads:             12

  Minimum eigenvalue in the overlap matrix is 3.9482947994E-04.
  Using Symmetric Orthogonalization.

  SCF Guess: Superposition of Atomic Densities via on-the-fly atomic UHF.

  ==> Iterations <==

                        Total Energy        Delta E     RMS |[F,P]|

   @UHF iter SAD:   -75.47071698136897   -7.54707e+01   0.00000e+00 
   @UHF iter   1:   -75.97497501929580   -5.04258e-01   9.50951e-03 DIIS
   @UHF iter   2:   -76.02732193100530   -5.23469e-02   6.53649e-03 DIIS
   @UHF iter   3:   -76.05934191635382   -3.20200e-02   4.44051e-04 DIIS
   @UHF iter   4:   -76.05973705578558   -3.95139e-04   1.07737e-04 DIIS
   @UHF iter   5:   -76.05976263893230   -2.55831e-05   2.46980e-05 DIIS
   @UHF iter   6:   -76.05976475647884   -2.11755e-06   5.38142e-06 DIIS
   @UHF iter   7:   -76.05976486613997   -1.09661e-07   9.45494e-07 DIIS
   @UHF iter   8:   -76.05976486909209   -2.95212e-09   1.59358e-07 DIIS
   @UHF iter   9:   -76.05976486915776   -6.56684e-11   3.89621e-08 DIIS
   @UHF iter  10:   -76.05976486916154   -3.78009e-12   5.90503e-09 DIIS
  Energy and wave function converged.


  ==> Post-Iterations <==

   @Spin Contamination Metric:   4.707345624E-14
   @S^2 Expected:                0.000000000E+00
   @S^2 Observed:                4.707345624E-14
   @S   Expected:                0.000000000E+00
   @S   Observed:                0.000000000E+00

    Orbital Energies [Eh]
    ---------------------

    Alpha Occupied:                                                       

       1A1   -20.569460     2A1    -1.350830     1B2    -0.709697  
       3A1    -0.587156     1B1    -0.510265  

    Alpha Virtual:                                                        

       4A1     0.029216     2B2     0.047773     5A1     0.135642  
       2B1     0.159226     6A1     0.175355     3B2     0.183466  
       4B2     0.226248     7A1     0.244945     1A2     0.265939  
       3B1     0.298252     8A1     0.309058     5B2     0.365894  
       9A1     0.436452     6B2     0.465173     7B2     0.597995  
      10A1     0.659626    11A1     0.706580     2A2     0.723931  
       4B1     0.731612    12A1     0.830754     5B1     0.847408  
      13A1     0.893631     8B2     0.911618     6B1     0.916645  
       3A2     0.922570     9B2     0.931718    14A1     0.957907  
      15A1     1.018935    10B2     1.041329     7B1     1.081255  
      11B2     1.106411     4A2     1.176597    16A1     1.182738  
      12B2     1.262810     5A2     1.508150    17A1     1.524632  
       8B1     1.576280    18A1     1.809563    13B2     1.829797  
      14B2     1.974244    19A1     2.115959     9B1     2.263214  
       6A2     2.314283    20A1     2.329270    21A1     2.417743  
      10B1     2.421373    15B2     2.444361    22A1     2.482773  
      16B2     2.676684    11B1     2.697722    23A1     2.771425  
      17B2     2.800544     7A2     2.881916    18B2     3.650291  
      24A1     3.722982     8A2     4.021339    12B1     4.076686  
      25A1     4.141655    19B2     4.248861    13B1     4.266060  
      26A1     4.364237     9A2     4.374643    14B1     4.403079  
      20B2     4.522325    27A1     4.725987    21B2     4.839190  
      10A2     5.132435    22B2     5.160362    23B2     5.225852  
      28A1     5.304889    15B1     5.514622    29A1     5.636919  
      30A1     6.184488    24B2     6.506794    16B1     6.707343  
      31A1     6.906865    17B1     7.124177    18B1     7.249225  
      25B2     7.262741    11A2     7.305928    32A1     7.340767  
      12A2     7.349685    33A1     7.514404    34A1     7.869089  
      26B2     7.920098    27B2     8.789644    35A1    15.576817  

    Beta Occupied:                                                        

       1A1   -20.569460     2A1    -1.350830     1B2    -0.709697  
       3A1    -0.587156     1B1    -0.510265  

    Beta Virtual:                                                         

       4A1     0.029216     2B2     0.047773     5A1     0.135642  
       2B1     0.159226     6A1     0.175355     3B2     0.183466  
       4B2     0.226248     7A1     0.244945     1A2     0.265939  
       3B1     0.298252     8A1     0.309058     5B2     0.365894  
       9A1     0.436452     6B2     0.465173     7B2     0.597995  
      10A1     0.659626    11A1     0.706580     2A2     0.723931  
       4B1     0.731612    12A1     0.830754     5B1     0.847408  
      13A1     0.893631     8B2     0.911618     6B1     0.916645  
       3A2     0.922570     9B2     0.931718    14A1     0.957907  
      15A1     1.018935    10B2     1.041329     7B1     1.081255  
      11B2     1.106411     4A2     1.176597    16A1     1.182738  
      12B2     1.262810     5A2     1.508150    17A1     1.524632  
       8B1     1.576280    18A1     1.809563    13B2     1.829797  
      14B2     1.974244    19A1     2.115959     9B1     2.263214  
       6A2     2.314283    20A1     2.329270    21A1     2.417743  
      10B1     2.421373    15B2     2.444361    22A1     2.482773  
      16B2     2.676684    11B1     2.697722    23A1     2.771425  
      17B2     2.800544     7A2     2.881916    18B2     3.650291  
      24A1     3.722982     8A2     4.021339    12B1     4.076686  
      25A1     4.141655    19B2     4.248861    13B1     4.266060  
      26A1     4.364237     9A2     4.374643    14B1     4.403079  
      20B2     4.522325    27A1     4.725987    21B2     4.839190  
      10A2     5.132435    22B2     5.160362    23B2     5.225852  
      28A1     5.304889    15B1     5.514622    29A1     5.636919  
      30A1     6.184488    24B2     6.506794    16B1     6.707343  
      31A1     6.906865    17B1     7.124177    18B1     7.249225  
      25B2     7.262741    11A2     7.305928    32A1     7.340767  
      12A2     7.349685    33A1     7.514404    34A1     7.869089  
      26B2     7.920098    27B2     8.789644    35A1    15.576817  

    Final Occupation by Irrep:
             A1    A2    B1    B2 
    DOCC [     3,    0,    1,    1 ]
    SOCC [     0,    0,    0,    0 ]

  @UHF Final Energy:   -76.05976486916154

   => Energetics <=

    Nuclear Repulsion Energy =              9.1221333259412027
    One-Electron Energy =                -122.9089803271013466
    Two-Electron Energy =                  37.7270821319985927
    Total Energy =                        -76.0597648691615404

  UHF NO Occupations:
  HONO-2 :    1 B1 2.0000000
  HONO-1 :    1 B2 2.0000000
  HONO-0 :    3 A1 2.0000000
  LUNO+0 :    4 A1 0.0000000
  LUNO+1 :    5 A1 0.0000000
  LUNO+2 :    2 B2 0.0000000
  LUNO+3 :    6 A1 0.0000000


Computation Completed


Properties will be evaluated at   0.000000,   0.000000,   0.000000 [a0]

Properties computed using the SCF density matrix

  Nuclear Dipole Moment: [e a0]
     X:     0.0000      Y:     0.0000      Z:     1.0048

  Electronic Dipole Moment: [e a0]
     X:     0.0000      Y:     0.0000      Z:    -0.2098

  Dipole Moment: [e a0]
     X:     0.0000      Y:     0.0000      Z:     0.7950     Total:     0.7950

  Dipole Moment: [D]
     X:     0.0000      Y:     0.0000      Z:     2.0207     Total:     2.0207


*** tstop() called on c2-13.compute.lan at Mon Mar  8 09:41:21 2021
Module time:
	user time   =      17.01 seconds =       0.28 minutes
	system time =       0.95 seconds =       0.02 minutes
	total time  =          2 seconds =       0.03 minutes
Total time:
	user time   =      17.01 seconds =       0.28 minutes
	system time =       0.95 seconds =       0.02 minutes
	total time  =          2 seconds =       0.03 minutes
 MINTS: Wrapper to libmints.
   by Justin Turney

   Calculation information:
      Number of threads:                12
      Number of atoms:                   3
      Number of AO shells:              32
      Number of SO shells:              23
      Number of primitives:             52
      Number of atomic orbitals:       105
      Number of basis functions:        92

      Number of irreps:                  4
      Integral cutoff                 0.00e+00
      Number of functions per irrep: [  35   12   18   27 ]

 OEINTS: Overlap, kinetic, potential, dipole, and quadrupole integrals
         stored in file 35.

      Computing two-electron integrals...done
      Computed 2208309 non-zero two-electron integrals.
        Stored in file 33.


*** tstart() called on c2-13.compute.lan
*** at Mon Mar  8 09:41:22 2021


	Wfn Parameters:
	--------------------
	Wavefunction         = CCSD_T
	Number of irreps     = 4
	Number of MOs        = 92
	Number of active MOs = 91
	AO-Basis             = NONE
	Semicanonical        = false
	Reference            = UHF
	Print Level          = 1

	IRREP	# MOs	# FZDC	# DOCC	# SOCC	# VIRT	# FZVR
	-----	-----	------	------	------	------	------
	 A1	   35	    1	    2	    0	    32	    0
	 A2	   12	    0	    0	    0	    12	    0
	 B1	   18	    0	    1	    0	    17	    0
	 B2	   27	    0	    1	    0	    26	    0
	Transforming integrals...
	IWL integrals will be deleted.
	(OO|OO)...
	Presorting SO-basis two-electron integrals.
	Sorting File: SO Ints (nn|nn) nbuckets = 1
	Transforming the one-electron integrals and constructing Fock matrices
	Starting AA/AB first half-transformation.
	Sorting AA/AB half-transformed integrals.
	Starting BB first half-transformation.
	Sorting BB half-transformed integrals.
	First half integral transformation complete.
	Starting AA second half-transformation.
	Starting AB second half-transformation.
	Starting BB second half-transformation.
	Two-electron integral transformation complete.
	(OO|OV)...
	Starting AA second half-transformation.
	Starting AB second half-transformation.
	Starting BB second half-transformation.
	Two-electron integral transformation complete.
	(OO|VV)...
	Starting AA second half-transformation.
	Starting AB second half-transformation.
	Starting BB second half-transformation.
	Two-electron integral transformation complete.
	(OV|OO)...
	Starting AA/AB first half-transformation.
	Sorting AA/AB half-transformed integrals.
	Starting BB first half-transformation.
	Sorting BB half-transformed integrals.
	First half integral transformation complete.
	Starting AA second half-transformation.
	Starting AB second half-transformation.
	Starting BB second half-transformation.
	Two-electron integral transformation complete.
	(OV|OV)...
	Starting AA second half-transformation.
	Starting AB second half-transformation.
	Starting BB second half-transformation.
	Two-electron integral transformation complete.
	(OV|VV)...
	Starting AA second half-transformation.
	Starting AB second half-transformation.
	Starting BB second half-transformation.
	Two-electron integral transformation complete.
	(VV|OO)...
	Starting AA/AB first half-transformation.
	Sorting AA/AB half-transformed integrals.
	Starting BB first half-transformation.
	Sorting BB half-transformed integrals.
	First half integral transformation complete.
	Starting AA second half-transformation.
	Starting AB second half-transformation.
	Starting BB second half-transformation.
	Two-electron integral transformation complete.
	(VV|OV)...
	Starting AA second half-transformation.
	Starting AB second half-transformation.
	Starting BB second half-transformation.
	Two-electron integral transformation complete.
	(VV|VV)...
	Starting AA second half-transformation.
	Starting AB second half-transformation.
	Starting BB second half-transformation.
	Two-electron integral transformation complete.
	Frozen core energy     =    -61.29820399058584

	Size of irrep 0 of <AB|CD> integrals:      1.047 (MW) /      8.372 (MB)
	Size of irrep 1 of <AB|CD> integrals:      0.682 (MW) /      5.458 (MB)
	Size of irrep 2 of <AB|CD> integrals:      0.733 (MW) /      5.862 (MB)
	Size of irrep 3 of <AB|CD> integrals:      1.073 (MW) /      8.586 (MB)
	Total:                                     3.535 (MW) /     28.279 (MB)

	Size of irrep 0 of <ab|cd> integrals:      1.047 (MW) /      8.372 (MB)
	Size of irrep 1 of <ab|cd> integrals:      0.682 (MW) /      5.458 (MB)
	Size of irrep 2 of <ab|cd> integrals:      0.733 (MW) /      5.862 (MB)
	Size of irrep 3 of <ab|cd> integrals:      1.073 (MW) /      8.586 (MB)
	Total:                                     3.535 (MW) /     28.279 (MB)

	Size of irrep 0 of <Ab|Cd> integrals:      4.550 (MW) /     36.398 (MB)
	Size of irrep 1 of <Ab|Cd> integrals:      2.729 (MW) /     21.833 (MB)
	Size of irrep 2 of <Ab|Cd> integrals:      2.931 (MW) /     23.448 (MB)
	Size of irrep 3 of <Ab|Cd> integrals:      4.293 (MW) /     34.345 (MB)
	Total:                                    14.503 (MW) /    116.023 (MB)

	Size of irrep 0 of <IA|BC> integrals:      0.228 (MW) /      1.826 (MB)
	Size of irrep 1 of <IA|BC> integrals:      0.111 (MW) /      0.885 (MB)
	Size of irrep 2 of <IA|BC> integrals:      0.134 (MW) /      1.068 (MB)
	Size of irrep 3 of <IA|BC> integrals:      0.199 (MW) /      1.591 (MB)
	Total:                                     0.671 (MW) /      5.371 (MB)

	Size of irrep 0 of <ia|bc> integrals:      0.228 (MW) /      1.826 (MB)
	Size of irrep 1 of <ia|bc> integrals:      0.111 (MW) /      0.885 (MB)
	Size of irrep 2 of <ia|bc> integrals:      0.134 (MW) /      1.068 (MB)
	Size of irrep 3 of <ia|bc> integrals:      0.199 (MW) /      1.591 (MB)
	Total:                                     0.671 (MW) /      5.371 (MB)

	Size of irrep 0 of <Ia|Bc> integrals:      0.228 (MW) /      1.826 (MB)
	Size of irrep 1 of <Ia|Bc> integrals:      0.111 (MW) /      0.885 (MB)
	Size of irrep 2 of <Ia|Bc> integrals:      0.134 (MW) /      1.068 (MB)
	Size of irrep 3 of <Ia|Bc> integrals:      0.199 (MW) /      1.591 (MB)
	Total:                                     0.671 (MW) /      5.371 (MB)

	Size of irrep 0 of <iA|bC> integrals:      0.228 (MW) /      1.826 (MB)
	Size of irrep 1 of <iA|bC> integrals:      0.111 (MW) /      0.885 (MB)
	Size of irrep 2 of <iA|bC> integrals:      0.134 (MW) /      1.068 (MB)
	Size of irrep 3 of <iA|bC> integrals:      0.199 (MW) /      1.591 (MB)
	Total:                                     0.671 (MW) /      5.371 (MB)

	Size of irrep 0 of tIjAb amplitudes:       0.013 (MW) /      0.102 (MB)
	Size of irrep 1 of tIjAb amplitudes:       0.003 (MW) /      0.026 (MB)
	Size of irrep 2 of tIjAb amplitudes:       0.007 (MW) /      0.055 (MB)
	Size of irrep 3 of tIjAb amplitudes:       0.008 (MW) /      0.066 (MB)
	Total:                                     0.031 (MW) /      0.250 (MB)

	Nuclear Rep. energy          =      9.12213332594120
	SCF energy                   =    -76.05976486916154
	One-electron energy          =    -41.45149241766278
	Two-electron (AA) energy     =      3.41496732100327
	Two-electron (BB) energy     =      3.41496732100327
	Two-electron (AB) energy     =     10.73786357113917
	Two-electron energy          =     17.56779821314571
	Reference energy             =    -76.05976486916171

*** tstop() called on c2-13.compute.lan at Mon Mar  8 09:41:43 2021
Module time:
	user time   =     181.15 seconds =       3.02 minutes
	system time =      10.93 seconds =       0.18 minutes
	total time  =         21 seconds =       0.35 minutes
Total time:
	user time   =     202.09 seconds =       3.37 minutes
	system time =      12.20 seconds =       0.20 minutes
	total time  =         24 seconds =       0.40 minutes
            **************************
            *                        *
            *        CCENERGY        *
            *                        *
            **************************

    Nuclear Rep. energy (wfn)     =    9.122133325941203
    SCF energy          (wfn)     =  -76.059764869161540
    Reference energy    (file100) =  -76.059764869161711

    Input parameters:
    -----------------
    Wave function   =     CCSD_T
    Reference wfn   =     UHF
    Brueckner       =     No
    Memory (Mbytes) =     4000.0
    Maxiter         =     50
    R_Convergence   =     1.0e-10
    E_Convergence   =     1.0e-10
    Restart         =     Yes
    DIIS            =     Yes
    AO Basis        =     NONE
    ABCD            =     NEW
    Cache Level     =     2
    Cache Type      =     LRU
    Print Level     =     1
    Num. of threads =     12
    # Amps to Print =     10
    Print MP2 Amps? =     No
    Analyze T2 Amps =     No
    Print Pair Ener =     No
    Local CC        =     No
    SCS-MP2         =     False
    SCSN-MP2        =     False
    SCS-CCSD        =     False

MP2 correlation energy -0.2691546981774206
                Solving CC Amplitude Equations
                ------------------------------
  Iter             Energy              RMS        T1Diag      D1Diag    New D1Diag    D2Diag
  ----     ---------------------    ---------   ----------  ----------  ----------   --------
     0        -0.269154698177421    0.000e+00    0.000000    0.000000    0.000000    0.000000
     1        -0.267519097571236    4.805e-02    0.012194    0.000000    0.000000    0.000000
     2        -0.272650650946762    1.328e-02    0.011967    0.000000    0.000000    0.000000
     3        -0.273886511316391    6.246e-03    0.013845    0.000000    0.000000    0.000000
     4        -0.273781045809200    1.259e-03    0.014172    0.000000    0.000000    0.000000
     5        -0.273764726133582    4.635e-04    0.014305    0.000000    0.000000    0.000000
     6        -0.273765577864266    1.154e-04    0.014336    0.000000    0.000000    0.000000
     7        -0.273764332729313    3.907e-05    0.014342    0.000000    0.000000    0.000000
     8        -0.273764376353292    1.068e-05    0.014344    0.000000    0.000000    0.000000
     9        -0.273764420015972    3.253e-06    0.014344    0.000000    0.000000    0.000000
    10        -0.273764298864759    1.303e-06    0.014344    0.000000    0.000000    0.000000
    11        -0.273764315965949    4.473e-07    0.014344    0.000000    0.000000    0.000000
    12        -0.273764310698942    1.692e-07    0.014344    0.000000    0.000000    0.000000
    13        -0.273764312454124    5.022e-08    0.014344    0.000000    0.000000    0.000000
    14        -0.273764313646403    1.330e-08    0.014344    0.000000    0.000000    0.000000
    15        -0.273764313700381    4.022e-09    0.014344    0.000000    0.000000    0.000000
    16        -0.273764313705468    1.221e-09    0.014344    0.000000    0.000000    0.000000
    17        -0.273764313715341    4.182e-10    0.014344    0.000000    0.000000    0.000000
    18        -0.273764313712702    1.090e-10    0.014344    0.000000    0.000000    0.000000
    19        -0.273764313712459    3.292e-11    0.014344    0.000000    0.000000    0.000000

    Iterations converged.


    Largest TIA Amplitudes:
              2  44        -0.0152700962
              2  45        -0.0131835068
              1   1         0.0084796279
              1   4        -0.0077085394
              3  73         0.0054662850
              2  54         0.0042881388
              3  69         0.0038405348
              3  80         0.0036677085
              2  47        -0.0036523097
              1  23         0.0034037668

    Largest Tia Amplitudes:
              2  44        -0.0152700962
              2  45        -0.0131835068
              1   1         0.0084796279
              1   4        -0.0077085394
              3  73         0.0054662850
              2  54         0.0042881388
              3  69         0.0038405348
              3  80         0.0036677085
              2  47        -0.0036523097
              1  23         0.0034037668

    Largest TIJAB Amplitudes:
      2   1  46   7        -0.0095990852
      3   1  66   6        -0.0094005626
      3   2  33   6        -0.0084100674
      3   1  65   9         0.0080679932
      2   1  49   9         0.0079228982
      3   2  65  49        -0.0077465881
      3   2  65  44        -0.0074807859
      3   1  66  13         0.0074509794
      3   2  65  45        -0.0072356129
      2   1  48   9         0.0071075252

    Largest Tijab Amplitudes:
      2   1  46   7        -0.0095990852
      3   1  66   6        -0.0094005626
      3   2  33   6        -0.0084100674
      3   1  65   9         0.0080679932
      2   1  49   9         0.0079228982
      3   2  65  49        -0.0077465881
      3   2  65  44        -0.0074807859
      3   1  66  13         0.0074509794
      3   2  65  45        -0.0072356129
      2   1  48   9         0.0071075252

    Largest TIjAb Amplitudes:
      3   3  65  65        -0.0221908165
      1   1   9   9        -0.0195887117
      2   2  49  49        -0.0158334991
      3   3  65  69        -0.0157515991
      3   3  69  65        -0.0157515991
      3   3  66  66        -0.0148784874
      1   1  66  66        -0.0136892839
      2   2  48  48        -0.0133902321
      3   3  69  69        -0.0131320694
      1   3   9  65         0.0128261380

    SCF energy       (wfn)                    =  -76.059764869161540
    Reference energy (file100)                =  -76.059764869161711

    Opposite-spin MP2 correlation energy      =   -0.203826346437283
    Same-spin MP2 correlation energy          =   -0.065328351740138
    MP2 correlation energy                    =   -0.269154698177421
      * MP2 total energy                      =  -76.328919567339128

    Opposite-spin CCSD correlation energy     =   -0.215826708105898
    Same-spin CCSD correlation energy         =   -0.057937605606560
    CCSD correlation energy                   =   -0.273764313712459
      * CCSD total energy                     =  -76.333529182874173

            **************************
            *                        *
            *        CCTRIPLES       *
            *                        *
            **************************


    Wave function   =    CCSD_T
    Reference wfn   =      UHF

    Nuclear Rep. energy (wfn)                =    9.122133325941203
    SCF energy          (wfn)                =  -76.059764869161540
    Reference energy    (file100)            =  -76.059764869161711
    CCSD energy         (file100)            =   -0.273764313712459
    Total CCSD energy   (file100)            =  -76.333529182874173

    Number of ijk index combinations:
    Spin Case AAA:                                   4
    Spin Case BBB:                                   4
    Spin Case AAB:                                  24
    Spin Case ABB:                                  24
    AAA (T) energy                             =   -0.000194222303271
    BBB (T) energy                             =   -0.000194222303271
    AAB (T) energy                             =   -0.004165786391965
    ABB (T) energy                             =   -0.004165786391965
    (T) energy                                   =   -0.008720017390473
      * CCSD(T) total energy                     =  -76.342249200264646

Stephenergy -76.34224920026465
    Psi4 stopped on: Monday, 08 March 2021 09:41AM
    Psi4 wall time for execution: 0:00:35.76

*** Psi4 exiting successfully. Buy a developer a beer!
