
    -----------------------------------------------------------------------
          Psi4: An Open-Source Ab Initio Electronic Structure Package
                               Psi4 1.4a2.dev191 

                         Git: Rev {master} 0ab5346 


    R. M. Parrish, L. A. Burns, D. G. A. Smith, A. C. Simmonett,
    A. E. DePrince III, E. G. Hohenstein, U. Bozkaya, A. Yu. Sokolov,
    R. Di Remigio, R. M. Richard, J. F. Gonthier, A. M. James,
    H. R. McAlexander, A. Kumar, M. Saitow, X. Wang, B. P. Pritchard,
    P. Verma, H. F. Schaefer III, K. Patkowski, R. A. King, E. F. Valeev,
    F. A. Evangelista, J. M. Turney, T. D. Crawford, and C. D. Sherrill,
    J. Chem. Theory Comput. 13(7) pp 3185--3197 (2017).
    (doi: 10.1021/acs.jctc.7b00174)


                         Additional Contributions by
    P. Kraus, H. Kruse, M. H. Lechner, M. C. Schieber, R. A. Shaw,
    A. Alenaizan, R. Galvelis, Z. L. Glick, S. Lehtola, and J. P. Misiewicz

    -----------------------------------------------------------------------


    Psi4 started on: Tuesday, 23 February 2021 01:35PM

    Process ID: 6363
    Host:       c1-17.compute.lan
    PSIDATADIR: /apps/gb/PSI4/1.4.0/share/psi4
    Memory:     500.0 MiB
    Threads:    1
    
  ==> Input File <==

--------------------------------------------------------------------------
memory 10 GB
molecule {
0 2
O
H 1 R1
R1 = 0.9478992047
}
set {
basis aug-cc-pvtz
e_convergence 10
g_convergence gau_verytight
reference uhf
scf_type pk
mp2_type conv
}

set ccenergy {
e_convergence 10
r_convergence 10
}

optimize("ccsd")

--------------------------------------------------------------------------

  Memory set to   9.313 GiB by Python driver.
gradient() will perform analytic gradient computation.

*** tstart() called on c1-17.compute.lan
*** at Tue Feb 23 13:35:04 2021

   => Loading Basis Set <=

    Name: AUG-CC-PVTZ
    Role: ORBITAL
    Keyword: BASIS
    atoms 1 entry O          line   331 file /apps/gb/PSI4/1.4.0/share/psi4/basis/aug-cc-pvtz.gbs 
    atoms 2 entry H          line    40 file /apps/gb/PSI4/1.4.0/share/psi4/basis/aug-cc-pvtz.gbs 


         ---------------------------------------------------------
                                   SCF
               by Justin Turney, Rob Parrish, Andy Simmonett
                          and Daniel G. A. Smith
                              UHF Reference
                        1 Threads,   9536 MiB Core
         ---------------------------------------------------------

  ==> Geometry <==

    Molecular point group: c2v
    Full point group: C_inf_v

    Geometry (in Angstrom), charge = 0, multiplicity = 2:

       Center              X                  Y                   Z               Mass       
    ------------   -----------------  -----------------  -----------------  -----------------
         O            0.000000000000     0.000000000000    -0.056186036256    15.994914619570
         H            0.000000000000     0.000000000000     0.891713168444     1.007825032230

  Running in c2v symmetry.

  Rotational constants: A = ************  B =     19.78901  C =     19.78901 [cm^-1]
  Rotational constants: A = ************  B = 593259.52428  C = 593259.52428 [MHz]
  Nuclear repulsion =    4.466105324668810

  Charge       = 0
  Multiplicity = 2
  Electrons    = 9
  Nalpha       = 5
  Nbeta        = 4

  ==> Algorithm <==

  SCF Algorithm Type is PK.
  DIIS enabled.
  MOM disabled.
  Fractional occupation disabled.
  Guess Type is SAD.
  Energy threshold   = 1.00e-10
  Density threshold  = 1.00e-10
  Integral threshold = 0.00e+00

  ==> Primary Basis <==

  Basis Set: AUG-CC-PVTZ
    Blend: AUG-CC-PVTZ
    Number of shells: 23
    Number of basis function: 69
    Number of Cartesian functions: 80
    Spherical Harmonics?: true
    Max angular momentum: 3

  ==> Pre-Iterations <==

   -------------------------------------------------------
    Irrep   Nso     Nmo     Nalpha   Nbeta   Ndocc  Nsocc
   -------------------------------------------------------
     A1        30      30       0       0       0       0
     A2         7       7       0       0       0       0
     B1        16      16       0       0       0       0
     B2        16      16       0       0       0       0
   -------------------------------------------------------
    Total      69      69       5       4       4       1
   -------------------------------------------------------

  ==> Integral Setup <==

  Using in-core PK algorithm.
   Calculation information:
      Number of atoms:                   2
      Number of AO shells:              23
      Number of primitives:             41
      Number of atomic orbitals:        80
      Number of basis functions:        69

      Integral cutoff                 1.00e-12
      Number of threads:                 1

  Performing in-core PK
  Using 5834640 doubles for integral storage.
  We computed 38226 shell quartets total.
  Whereas there are 38226 unique shell quartets.

  ==> DiskJK: Disk-Based J/K Matrices <==

    J tasked:                  Yes
    K tasked:                  Yes
    wK tasked:                  No
    Memory [MiB]:             7152
    Schwarz Cutoff:          1E-12

    OpenMP threads:              1

  Minimum eigenvalue in the overlap matrix is 4.7781918465E-04.
  Using Symmetric Orthogonalization.

  SCF Guess: Superposition of Atomic Densities via on-the-fly atomic UHF.

  ==> Iterations <==

                        Total Energy        Delta E     RMS |[F,P]|

   @UHF iter SAD:   -74.66140906434723   -7.46614e+01   0.00000e+00 
   @UHF iter   1:   -75.39842268115808   -7.37014e-01   6.03892e-03 DIIS
   @UHF iter   2:   -75.41870146548068   -2.02788e-02   2.34129e-03 DIIS
   @UHF iter   3:   -75.42142464014682   -2.72317e-03   6.76848e-04 DIIS
   @UHF iter   4:   -75.42186033484160   -4.35695e-04   2.05750e-04 DIIS
   @UHF iter   5:   -75.42192994199266   -6.96072e-05   9.04488e-05 DIIS
   @UHF iter   6:   -75.42194851316731   -1.85712e-05   3.12303e-05 DIIS
   @UHF iter   7:   -75.42195122066116   -2.70749e-06   1.01037e-05 DIIS
   @UHF iter   8:   -75.42195150935268   -2.88692e-07   2.12677e-06 DIIS
   @UHF iter   9:   -75.42195151876579   -9.41311e-09   6.86428e-07 DIIS
   @UHF iter  10:   -75.42195151985231   -1.08652e-09   9.86729e-08 DIIS
   @UHF iter  11:   -75.42195151987261   -2.02931e-11   1.37080e-08 DIIS
   @UHF iter  12:   -75.42195151987301   -3.97904e-13   3.07230e-09 DIIS
   @UHF iter  13:   -75.42195151987295    5.68434e-14   7.88848e-10 DIIS
   @UHF iter  14:   -75.42195151987302   -7.10543e-14   1.86283e-10 DIIS
   @UHF iter  15:   -75.42195151987295    7.10543e-14   2.63027e-11 DIIS
  Energy and wave function converged.


  ==> Post-Iterations <==

   @Spin Contamination Metric:   6.809872207E-03
   @S^2 Expected:                7.500000000E-01
   @S^2 Observed:                7.568098722E-01
   @S   Expected:                5.000000000E-01
   @S   Observed:                5.000000000E-01

    Orbital Energies [Eh]
    ---------------------

    Alpha Occupied:                                                       

       1A1   -20.639264     2A1    -1.396702     3A1    -0.689268  
       1B1    -0.659509     1B2    -0.562687  

    Alpha Virtual:                                                        

       4A1     0.030098     5A1     0.136580     2B1     0.152270  
       2B2     0.161512     6A1     0.184876     7A1     0.263548  
       3B1     0.269429     3B2     0.276039     8A1     0.430795  
       9A1     0.631304     1A2     0.638807    10A1     0.652012  
       4B1     0.714005     4B2     0.728763     5B1     0.851035  
       5B2     0.878509    11A1     0.879663    12A1     0.921315  
       2A2     0.939803    13A1     0.940851     6B1     0.984313  
      14A1     1.008163     6B2     1.010559     7B1     1.506786  
       7B2     1.526749    15A1     1.687640     8B1     2.042349  
       8B2     2.042369    16A1     2.054904     3A2     2.097322  
      17A1     2.098124     9B1     2.257642     9B2     2.294160  
      18A1     2.326238     4A2     2.327539    19A1     2.421748  
      20A1     2.504667    10B1     2.726948    10B2     2.766482  
      21A1     3.610069    11B1     4.035796     5A2     4.048727  
      22A1     4.048996    11B2     4.091796    12B1     4.303973  
      12B2     4.318104    23A1     4.663052    24A1     5.177337  
      13B1     5.316339    13B2     5.355767    25A1     6.123786  
      14B1     6.430713    14B2     6.430736     6A2     6.601896  
      26A1     6.603586     7A2     6.965368    27A1     6.965484  
      15B1     7.136474    15B2     7.194240    16B1     7.210554  
      16B2     7.266523    28A1     7.431789    29A1     7.737256  
      30A1    13.313604  

    Beta Occupied:                                                        

       1A1   -20.599784     2A1    -1.239864     3A1    -0.644948  
       1B2    -0.514840  

    Beta Virtual:                                                         

       4A1     0.031193     1B1     0.062741     5A1     0.138910  
       2B2     0.163670     6A1     0.189115     2B1     0.208872  
       7A1     0.266686     3B2     0.276060     3B1     0.290815  
       8A1     0.440795     9A1     0.649080     1A2     0.655579  
      10A1     0.657323     4B2     0.727054     4B1     0.730787  
      11A1     0.884841     5B2     0.885425     5B1     0.912106  
      12A1     0.931631     2A2     0.941852    13A1     0.942406  
       6B2     1.018104    14A1     1.019506     6B1     1.059435  
       7B2     1.526822     7B1     1.533482    15A1     1.706579  
       8B2     2.061450     8B1     2.061453    16A1     2.076469  
       3A2     2.170825    17A1     2.172826     9B2     2.298141  
       9B1     2.302015    18A1     2.343072     4A2     2.343674  
      19A1     2.437432    20A1     2.519400    10B1     2.772445  
      10B2     2.773506    21A1     3.616243     5A2     4.051907  
      22A1     4.051940    11B2     4.109285    11B1     4.144562  
      12B1     4.313154    12B2     4.315671    23A1     4.673001  
      24A1     5.202119    13B1     5.357851    13B2     5.363184  
      25A1     6.147981    14B2     6.484972    14B1     6.484972  
       6A2     6.642500    26A1     6.642614     7A2     7.057260  
      27A1     7.057482    15B1     7.197166    15B2     7.206661  
      16B1     7.280214    16B2     7.282410    28A1     7.448669  
      29A1     7.765240    30A1    13.345977  

    Final Occupation by Irrep:
             A1    A2    B1    B2 
    DOCC [     3,    0,    0,    1 ]
    SOCC [     0,    0,    1,    0 ]

  @UHF Final Energy:   -75.42195151987295

   => Energetics <=

    Nuclear Repulsion Energy =              4.4661053246688098
    One-Electron Energy =                -112.8292469158351139
    Two-Electron Energy =                  32.9411900712933630
    Total Energy =                        -75.4219515198729482

  UHF NO Occupations:
  HONO-2 :    2 A1 1.9992993
  HONO-1 :    3 A1 1.9979034
  HONO-0 :    1 B1 1.0000000
  LUNO+0 :    4 A1 0.0020966
  LUNO+1 :    5 A1 0.0007007
  LUNO+2 :    2 B2 0.0006093
  LUNO+3 :    6 A1 0.0000011


Computation Completed


Properties will be evaluated at   0.000000,   0.000000,   0.000000 [a0]

Properties computed using the SCF density matrix

  Nuclear Dipole Moment: [e a0]
     X:     0.0000      Y:     0.0000      Z:     0.8357

  Electronic Dipole Moment: [e a0]
     X:     0.0000      Y:     0.0000      Z:    -0.1497

  Dipole Moment: [e a0]
     X:     0.0000      Y:     0.0000      Z:     0.6860     Total:     0.6860

  Dipole Moment: [D]
     X:     0.0000      Y:     0.0000      Z:     1.7436     Total:     1.7436


*** tstop() called on c1-17.compute.lan at Tue Feb 23 13:35:05 2021
Module time:
	user time   =       1.25 seconds =       0.02 minutes
	system time =       0.06 seconds =       0.00 minutes
	total time  =          1 seconds =       0.02 minutes
Total time:
	user time   =       1.25 seconds =       0.02 minutes
	system time =       0.06 seconds =       0.00 minutes
	total time  =          1 seconds =       0.02 minutes
 MINTS: Wrapper to libmints.
   by Justin Turney

   Calculation information:
      Number of threads:                 1
      Number of atoms:                   2
      Number of AO shells:              23
      Number of SO shells:              23
      Number of primitives:             41
      Number of atomic orbitals:        80
      Number of basis functions:        69

      Number of irreps:                  4
      Integral cutoff                 0.00e+00
      Number of functions per irrep: [  30    7   16   16 ]

 OEINTS: Overlap, kinetic, potential, dipole, and quadrupole integrals
         stored in file 35.

      Computing two-electron integrals...done
      Computed 673711 non-zero two-electron integrals.
        Stored in file 33.


*** tstart() called on c1-17.compute.lan
*** at Tue Feb 23 13:35:06 2021


	Wfn Parameters:
	--------------------
	Wavefunction         = CCSD
	Number of irreps     = 4
	Number of MOs        = 69
	Number of active MOs = 69
	AO-Basis             = NONE
	Semicanonical        = false
	Reference            = UHF
	Print Level          = 1

	IRREP	# MOs	# FZDC	# DOCC	# SOCC	# VIRT	# FZVR
	-----	-----	------	------	------	------	------
	 A1	   30	    0	    3	    0	    27	    0
	 A2	   7	    0	    0	    0	    7	    0
	 B1	   16	    0	    0	    1	    15	    0
	 B2	   16	    0	    1	    0	    15	    0
	Transforming integrals...
	IWL integrals will be deleted.
	(OO|OO)...
	Presorting SO-basis two-electron integrals.
	Sorting File: SO Ints (nn|nn) nbuckets = 1
	Transforming the one-electron integrals and constructing Fock matrices
	Starting AA/AB first half-transformation.
	Sorting AA/AB half-transformed integrals.
	Starting BB first half-transformation.
	Sorting BB half-transformed integrals.
	First half integral transformation complete.
	Starting AA second half-transformation.
	Starting AB second half-transformation.
	Starting BB second half-transformation.
	Two-electron integral transformation complete.
	(OO|OV)...
	Starting AA second half-transformation.
	Starting AB second half-transformation.
	Starting BB second half-transformation.
	Two-electron integral transformation complete.
	(OO|VV)...
	Starting AA second half-transformation.
	Starting AB second half-transformation.
	Starting BB second half-transformation.
	Two-electron integral transformation complete.
	(OV|OO)...
	Starting AA/AB first half-transformation.
	Sorting AA/AB half-transformed integrals.
	Starting BB first half-transformation.
	Sorting BB half-transformed integrals.
	First half integral transformation complete.
	Starting AA second half-transformation.
	Starting AB second half-transformation.
	Starting BB second half-transformation.
	Two-electron integral transformation complete.
	(OV|OV)...
	Starting AA second half-transformation.
	Starting AB second half-transformation.
	Starting BB second half-transformation.
	Two-electron integral transformation complete.
	(OV|VV)...
	Starting AA second half-transformation.
	Starting AB second half-transformation.
	Starting BB second half-transformation.
	Two-electron integral transformation complete.
	(VV|OO)...
	Starting AA/AB first half-transformation.
	Sorting AA/AB half-transformed integrals.
	Starting BB first half-transformation.
	Sorting BB half-transformed integrals.
	First half integral transformation complete.
	Starting AA second half-transformation.
	Starting AB second half-transformation.
	Starting BB second half-transformation.
	Two-electron integral transformation complete.
	(VV|OV)...
	Starting AA second half-transformation.
	Starting AB second half-transformation.
	Starting BB second half-transformation.
	Two-electron integral transformation complete.
	(VV|VV)...
	Starting AA second half-transformation.
	Starting AB second half-transformation.
	Starting BB second half-transformation.
	Two-electron integral transformation complete.
	Frozen core energy     =      0.00000000000000

	Size of irrep 0 of <AB|CD> integrals:      0.339 (MW) /      2.710 (MB)
	Size of irrep 1 of <AB|CD> integrals:      0.171 (MW) /      1.371 (MB)
	Size of irrep 2 of <AB|CD> integrals:      0.260 (MW) /      2.081 (MB)
	Size of irrep 3 of <AB|CD> integrals:      0.260 (MW) /      2.081 (MB)
	Total:                                     1.030 (MW) /      8.243 (MB)

	Size of irrep 0 of <ab|cd> integrals:      0.356 (MW) /      2.851 (MB)
	Size of irrep 1 of <ab|cd> integrals:      0.184 (MW) /      1.472 (MB)
	Size of irrep 2 of <ab|cd> integrals:      0.288 (MW) /      2.307 (MB)
	Size of irrep 3 of <ab|cd> integrals:      0.267 (MW) /      2.138 (MB)
	Total:                                     1.096 (MW) /      8.769 (MB)

	Size of irrep 0 of <Ab|Cd> integrals:      1.545 (MW) /     12.360 (MB)
	Size of irrep 1 of <Ab|Cd> integrals:      0.711 (MW) /      5.685 (MB)
	Size of irrep 2 of <Ab|Cd> integrals:      1.096 (MW) /      8.770 (MB)
	Size of irrep 3 of <Ab|Cd> integrals:      1.055 (MW) /      8.438 (MB)
	Total:                                     4.407 (MW) /     35.253 (MB)

	Size of irrep 0 of <IA|BC> integrals:      0.136 (MW) /      1.090 (MB)
	Size of irrep 1 of <IA|BC> integrals:      0.042 (MW) /      0.338 (MB)
	Size of irrep 2 of <IA|BC> integrals:      0.081 (MW) /      0.645 (MB)
	Size of irrep 3 of <IA|BC> integrals:      0.081 (MW) /      0.645 (MB)
	Total:                                     0.340 (MW) /      2.718 (MB)

	Size of irrep 0 of <ia|bc> integrals:      0.121 (MW) /      0.967 (MB)
	Size of irrep 1 of <ia|bc> integrals:      0.032 (MW) /      0.254 (MB)
	Size of irrep 2 of <ia|bc> integrals:      0.059 (MW) /      0.473 (MB)
	Size of irrep 3 of <ia|bc> integrals:      0.074 (MW) /      0.596 (MB)
	Total:                                     0.286 (MW) /      2.289 (MB)

	Size of irrep 0 of <Ia|Bc> integrals:      0.139 (MW) /      1.114 (MB)
	Size of irrep 1 of <Ia|Bc> integrals:      0.044 (MW) /      0.351 (MB)
	Size of irrep 2 of <Ia|Bc> integrals:      0.086 (MW) /      0.687 (MB)
	Size of irrep 3 of <Ia|Bc> integrals:      0.081 (MW) /      0.649 (MB)
	Total:                                     0.350 (MW) /      2.800 (MB)

	Size of irrep 0 of <iA|bC> integrals:      0.119 (MW) /      0.955 (MB)
	Size of irrep 1 of <iA|bC> integrals:      0.030 (MW) /      0.243 (MB)
	Size of irrep 2 of <iA|bC> integrals:      0.054 (MW) /      0.436 (MB)
	Size of irrep 3 of <iA|bC> integrals:      0.074 (MW) /      0.592 (MB)
	Total:                                     0.278 (MW) /      2.225 (MB)

	Size of irrep 0 of tIjAb amplitudes:       0.012 (MW) /      0.099 (MB)
	Size of irrep 1 of tIjAb amplitudes:       0.001 (MW) /      0.007 (MB)
	Size of irrep 2 of tIjAb amplitudes:       0.003 (MW) /      0.025 (MB)
	Size of irrep 3 of tIjAb amplitudes:       0.006 (MW) /      0.049 (MB)
	Total:                                     0.023 (MW) /      0.181 (MB)

	Nuclear Rep. energy          =      4.46610532466881
	SCF energy                   =    -75.42195151987295
	One-electron energy          =   -112.82924691664616
	Two-electron (AA) energy     =      7.75872280724359
	Two-electron (BB) energy     =      4.64833768183526
	Two-electron (AB) energy     =     20.53412958302554
	Two-electron energy          =     32.94119007210440
	Reference energy             =    -75.42195151987295

*** tstop() called on c1-17.compute.lan at Tue Feb 23 13:35:08 2021
Module time:
	user time   =       1.15 seconds =       0.02 minutes
	system time =       0.74 seconds =       0.01 minutes
	total time  =          2 seconds =       0.03 minutes
Total time:
	user time   =       2.60 seconds =       0.04 minutes
	system time =       0.83 seconds =       0.01 minutes
	total time  =          4 seconds =       0.07 minutes
            **************************
            *                        *
            *        CCENERGY        *
            *                        *
            **************************

    Nuclear Rep. energy (wfn)     =    4.466105324668810
    SCF energy          (wfn)     =  -75.421951519872948
    Reference energy    (file100) =  -75.421951519872948

    Input parameters:
    -----------------
    Wave function   =     CCSD
    Reference wfn   =     UHF
    Brueckner       =     No
    Memory (Mbytes) =     10000.0
    Maxiter         =     50
    R_Convergence   =     1.0e-10
    E_Convergence   =     1.0e-10
    Restart         =     Yes
    DIIS            =     Yes
    AO Basis        =     NONE
    ABCD            =     NEW
    Cache Level     =     2
    Cache Type      =     LRU
    Print Level     =     1
    Num. of threads =     1
    # Amps to Print =     10
    Print MP2 Amps? =     No
    Analyze T2 Amps =     No
    Print Pair Ener =     No
    Local CC        =     No
    SCS-MP2         =     False
    SCSN-MP2        =     False
    SCS-CCSD        =     False

MP2 correlation energy -0.2175656130380899
                Solving CC Amplitude Equations
                ------------------------------
  Iter             Energy              RMS        T1Diag      D1Diag    New D1Diag    D2Diag
  ----     ---------------------    ---------   ----------  ----------  ----------   --------
     0        -0.217565613038090    0.000e+00    0.000000    0.000000    0.000000    0.000000
     1        -0.225875506779825    3.728e-02    0.008940    0.000000    0.000000    0.000000
     2        -0.229871212992869    1.184e-02    0.010118    0.000000    0.000000    0.000000
     3        -0.230826131282857    5.905e-03    0.011749    0.000000    0.000000    0.000000
     4        -0.230739827452916    2.006e-03    0.012072    0.000000    0.000000    0.000000
     5        -0.230757211753143    8.714e-04    0.012140    0.000000    0.000000    0.000000
     6        -0.230774160426362    3.195e-04    0.012126    0.000000    0.000000    0.000000
     7        -0.230773992304595    1.000e-04    0.012111    0.000000    0.000000    0.000000
     8        -0.230774519683772    3.299e-05    0.012109    0.000000    0.000000    0.000000
     9        -0.230774424705380    1.079e-05    0.012109    0.000000    0.000000    0.000000
    10        -0.230774351664159    4.265e-06    0.012110    0.000000    0.000000    0.000000
    11        -0.230774422464633    1.609e-06    0.012110    0.000000    0.000000    0.000000
    12        -0.230774435029668    5.898e-07    0.012110    0.000000    0.000000    0.000000
    13        -0.230774448003302    2.243e-07    0.012110    0.000000    0.000000    0.000000
    14        -0.230774453109141    8.612e-08    0.012110    0.000000    0.000000    0.000000
    15        -0.230774453261560    3.638e-08    0.012110    0.000000    0.000000    0.000000
    16        -0.230774453303682    1.667e-08    0.012110    0.000000    0.000000    0.000000
    17        -0.230774453229005    7.567e-09    0.012110    0.000000    0.000000    0.000000
    18        -0.230774453314149    3.045e-09    0.012110    0.000000    0.000000    0.000000
    19        -0.230774453389774    1.216e-09    0.012110    0.000000    0.000000    0.000000
    20        -0.230774453407476    5.041e-10    0.012110    0.000000    0.000000    0.000000
    21        -0.230774453409933    2.166e-10    0.012110    0.000000    0.000000    0.000000
    22        -0.230774453409796    7.812e-11    0.012110    0.000000    0.000000    0.000000

    Iterations converged.


    Largest TIA Amplitudes:
              4  49        -0.0135417727
              3  34        -0.0134515932
              4  50        -0.0089740342
              3  35        -0.0086951384
              3  37        -0.0055040830
              2   3        -0.0054181816
              2   1         0.0050583484
              1   2        -0.0048467383
              4  52        -0.0046192997
              3  36        -0.0037169844

    Largest Tia Amplitudes:
              3  50        -0.0109197719
              3  51        -0.0082413673
              1   6        -0.0056468390
              1  13        -0.0055434286
              3  59         0.0047068068
              1   4         0.0040446742
              2   3        -0.0040400586
              2  19         0.0039543503
              3  52        -0.0038242895
              2  15         0.0038131766

    Largest TIJAB Amplitudes:
      4   3  29  13         0.0140000738
      4   3  52  37        -0.0119402494
      4   2  51   6         0.0102336339
      4   3  53  37        -0.0097313446
      3   2  37   8        -0.0096057911
      4   3  27  13         0.0090249844
      4   2  52   8        -0.0088704705
      3   2  36   5         0.0086508036
      4   3  49  37        -0.0086228424
      4   2  54   6         0.0082394263

    Largest Tijab Amplitudes:
      3   2  52   5         0.0111467309
      3   2  53   8        -0.0088421115
      3   2  55   5         0.0086601389
      3   1  34  27        -0.0078498270
      3   1  34  29         0.0077726459
      3   2  54   4        -0.0072467225
      3   2  54   8        -0.0072466025
      3   2  50   8        -0.0069015403
      2   1  37  34         0.0065995264
      3   2  50   4        -0.0064533717

    Largest TIjAb Amplitudes:
      4   3  52  53        -0.0196913710
      2   2   4   4        -0.0186106794
      4   3  52  54        -0.0179123170
      4   3  53  54        -0.0177149086
      3   1   5  34         0.0169301829
      2   2   8   8        -0.0166943509
      4   1  29  34         0.0165386089
      3   1  13  34        -0.0158768667
      4   3  53  53        -0.0158460670
      3   3  37  53        -0.0150466103

    SCF energy       (wfn)                    =  -75.421951519872948
    Reference energy (file100)                =  -75.421951519872948

    Opposite-spin MP2 correlation energy      =   -0.167021295002489
    Same-spin MP2 correlation energy          =   -0.050544318035601
    MP2 correlation energy                    =   -0.217565613038090
      * MP2 total energy                      =  -75.639517132911038

    Opposite-spin CCSD correlation energy     =   -0.182868449640460
    Same-spin CCSD correlation energy         =   -0.047906003769336
    CCSD correlation energy                   =   -0.230774453409796
      * CCSD total energy                     =  -75.652725973282742


			**************************
			*                        *
			*         CCHBAR         *
			*                        *
			**************************


			**************************
			*        CCLAMBDA        *
			**************************


	Nuclear Rep. energy (wfn)     =    4.466105324668810
	Reference           (wfn)     =                    2
	SCF energy          (wfn)     =  -75.421951519872948
	Reference energy    (CC_INFO) =  -75.421951519872948
	CCSD energy         (CC_INFO) =   -0.230774453409796
	Total CCSD energy   (CC_INFO) =  -75.652725973282742

	Input parameters:
	-----------------
	Maxiter           =     50
	Convergence       = 1.0e-07
	Restart           =     No
	Cache Level       =     2
	Model III         =     No
	DIIS              =     Yes
	AO Basis          =     No
	ABCD              =     NEW
	Local CC          =     No
	Parameters for left-handed eigenvectors:
	    Irr   Root  Ground-State?    EOM energy        R0
	  1   0     0        Yes       0.0000000000   1.0000000000
	Labels for eigenvector 1:
	LIA 0 -1, Lia 0 -1, LIJAB 0 -1, Lijab 0 -1, LIjAb 0 -1, 2LIjAb - LIjbA 0 -1
	Symmetry of left-hand state: B1
	Symmetry of left-hand eigenvector: A1

	          Solving Lambda Equations
	          ------------------------
	Iter     PseudoEnergy or Norm         RMS  
	----     ---------------------     --------
	   0        -0.230790063177222    0.000e+00
	   1        -0.226587452705967    9.761e-03
	   2        -0.226058031339854    2.106e-03
	   3        -0.225945743189670    1.043e-03
	   4        -0.225945120583098    2.874e-04
	   5        -0.225950401348149    7.982e-05
	   6        -0.225948601134448    3.327e-05
	   7        -0.225947889480530    1.498e-05
	   8        -0.225947977969028    4.564e-06
	   9        -0.225947900140703    1.593e-06
	  10        -0.225947889892427    4.820e-07
	  11        -0.225947884310468    1.635e-07
	  12        -0.225947885628044    5.621e-08

	Largest LIA Amplitudes:
	          3  34        -0.0098970386
	          4  49        -0.0095352226
	          3  35        -0.0063298828
	          4  50        -0.0061855697
	          1   2        -0.0037425450
	          3  37        -0.0036581682
	          2   3        -0.0034862101
	          4  52        -0.0030600352
	          2  12        -0.0030401411
	          1   5         0.0028957603

	Largest Lia Amplitudes:
	          3  50        -0.0064455069
	          1   6        -0.0053117787
	          1  13        -0.0052208928
	          3  51        -0.0050831185
	          1   4         0.0044897534
	          1  10         0.0040017845
	          3  59         0.0039852959
	          2  10         0.0035605573
	          2  15         0.0035440249
	          2  19         0.0033247629

	Largest LIJAB Amplitudes:
	  4   3  29  13         0.0136823721
	  4   3  52  37        -0.0117754496
	  4   2  51   6         0.0098669567
	  4   3  53  37        -0.0096120036
	  3   2  37   8        -0.0094629409
	  4   3  27  13         0.0087982764
	  4   2  52   8        -0.0087023741
	  4   3  49  37        -0.0084350219
	  3   2  36   5         0.0083729331
	  4   2  54   6         0.0079736900

	Largest Lijab Amplitudes:
	  3   2  52   5         0.0107122213
	  3   2  53   8        -0.0086059726
	  3   2  55   5         0.0083568045
	  3   1  34  27        -0.0076003070
	  3   1  34  29         0.0075920235
	  3   2  54   8        -0.0070826266
	  3   2  54   4        -0.0070058452
	  3   2  50   8        -0.0066489730
	  2   1  37  34         0.0063882782
	  3   2  50   4        -0.0061513223

	Largest LIjAb Amplitudes:
	  4   3  52  53        -0.0193289568
	  2   2   4   4        -0.0180431468
	  4   3  52  54        -0.0176001710
	  4   3  53  54        -0.0173674488
	  3   1   5  34         0.0164768779
	  2   2   8   8        -0.0163459132
	  4   1  29  34         0.0161500352
	  4   3  53  53        -0.0155685586
	  3   1  13  34        -0.0155367976
	  3   3  37  53        -0.0147786641

	Iterations converged.

	Overlap <L|e^T> =        0.94647197207

			**************************
			*                        *
			*        CCDENSITY       *
			*                        *
			**************************


	Input parameters:
	-----------------
	Wave function    =   CCSD
	Reference wfn    =   UHF
	Dertype          = 1
	Tolerance        = 1.0e-14
	Cache Level      = 2
	AO Basis         = No
	OPDM Only        = No
	Relax OPDM       = Yes
	Compute Xi       = No
	Use Zeta         = No
	Xi connected     = Yes
	Compute NO       = No

	Nuclear Rep. energy (wfn)     =    4.466105324668810
	SCF energy          (wfn)     =  -75.421951519872948
	Reference energy    (file100) =  -75.421951519872948
	CCSD energy         (CC_INFO) =   -0.230774453409796
	Total CCSD energy   (CC_INFO) =  -75.652725973282742
	Number of States = 1

	Ground?  State     EOM Energy       R0
	  Yes     0 A1    0.0000000000   1.00000000
  Cartesian Displacement SALCs
  By SALC:
  Number of SALCs: 2, nirreps: A1
  Project out translations: False
  Project out rotations: False
	irrep = 0, ncomponent = 1
		0: atom 0, direction z, coef 1.000000
	irrep = 0, ncomponent = 1
		0: atom 1, direction z, coef 1.000000

  By Atomic Center:
  Number of atomic centers: 2
   Atomic Center 0:
	x component, size = 0
	y component, size = 0
	z component, size = 1
		0: salc 0, irrep 0, coef 1.000000
   Atomic Center 1:
	x component, size = 0
	y component, size = 0
	z component, size = 1
		0: salc 1, irrep 0, coef 1.000000

    Molecular point group: c2v
    Full point group: C_inf_v

    Geometry (in Bohr), charge = 0, multiplicity = 2:

       Center              X                  Y                   Z       
    ------------   -----------------  -----------------  -----------------
         O            0.000000000000     0.000000000000    -0.106176220599
         H            0.000000000000     0.000000000000     1.685093670823

	Presorting MO-basis TPDMs.
	Sorting File: MO TPDM (AA|AA) nbuckets = 1
	Sorting File: MO TPDM (AA|aa) nbuckets = 1
	Sorting File: MO TPDM (aa|aa) nbuckets = 1
	Starting first half-transformation.
	Sorting half-transformed TPDMs.
	First half integral transformation complete.


  -Nuclear Repulsion Energy 1st Derivatives:
     Atom            X                  Y                   Z
    ------   -----------------  -----------------  -----------------
       1        0.000000000000     0.000000000000     2.493262096379
       2        0.000000000000     0.000000000000    -2.493262096379


  -Core Hamiltonian Gradient:
     Atom            X                  Y                   Z
    ------   -----------------  -----------------  -----------------
       1        0.000000000000     0.000000000000    -4.991534511225
       2        0.000000000000     0.000000000000     4.991534511225


  -Lagrangian contribution to gradient:
     Atom            X                  Y                   Z
    ------   -----------------  -----------------  -----------------
       1        0.000000000000     0.000000000000     0.265531417018
       2        0.000000000000     0.000000000000    -0.265531417018


  -Two-electron contribution to gradient:
     Atom            X                  Y                   Z
    ------   -----------------  -----------------  -----------------
       1        0.000000000000     0.000000000000     2.252987267448
       2        0.000000000000     0.000000000000    -2.252987267448


  -Total gradient:
     Atom            X                  Y                   Z
    ------   -----------------  -----------------  -----------------
       1        0.000000000000     0.000000000000     0.020246269620
       2        0.000000000000     0.000000000000    -0.020246269620


			-----------------------------------------
			 OPTKING 2.0: for geometry optimizations 
			  - R.A. King,  Bethel University        
			-----------------------------------------

	Internal coordinates to be generated automatically.
	Detected frag 1 with atoms:  1 2
	---Fragment 1 Bond Connectivity---
	 1 : 2
	 2 : 1

	---Fragment 1 Geometry and Gradient---
	 O           0.0000000000        0.0000000000       -0.1061762206
	 H           0.0000000000        0.0000000000        1.6850936708
	             0.0000000000        0.0000000000        0.0202462696
	             0.0000000000        0.0000000000       -0.0202462696

	Previous optimization step data not found.  Starting new optimization.

	---Fragment 1 Intrafragment Coordinates---
	 - Coordinate -           - BOHR/RAD -       - ANG/DEG -
	 R(1,2)           =         1.791270	       0.947899

	Current energy   :       -75.6527259733

	Generating empirical Hessian (Schlegel '84) for each fragment.
	Taking RFO optimization step.
	Going to follow RFO solution 1.
	Using RFO vector 1.
	Norm of target step-size    0.03477
	Projected energy change by RFO approximation:        -0.0000993748

	Back-transformation to cartesian coordinates...
	Successfully converged to displaced geometry.

	--- Internal Coordinate Step in ANG or DEG, aJ/ANG or AJ/DEG ---
	 ---------------------------------------------------------------------------
	   Coordinate                Previous        Force       Change         New 
	   ----------                --------       ------       ------       ------
	    1 R(1,2)          =      0.947899     0.166803     0.018399     0.966298
	 ---------------------------------------------------------------------------
	Successfully symmetrized geometry.

  ==> Convergence Check <==

  Measures of convergence in internal coordinates in au.
  Criteria marked as inactive (o), active & met (*), and active & unmet ( ).
  --------------------------------------------------------------------------------------------- ~
   Step     Total Energy     Delta E     MAX Force     RMS Force      MAX Disp      RMS Disp    ~
  --------------------------------------------------------------------------------------------- ~
    Convergence Criteria             o    2.00e-06 *    1.00e-06 *    6.00e-06 *    4.00e-06 *  ~
  --------------------------------------------------------------------------------------------- ~
      1     -75.65272597   -7.57e+01 o    2.02e-02      2.02e-02      3.48e-02      3.48e-02    ~
  ---------------------------------------------------------------------------------------------

	Writing optimization data to binary file.
	Structure for next step:
	Cartesian Geometry (in Angstrom)
	    O     0.0000000000   0.0000000000  -0.0653856253
	    H     0.0000000000   0.0000000000   0.9009127542
			--------------------------
			 OPTKING Finished Execution 
			--------------------------

    Structure for next step:
    Molecular point group: c2v
    Full point group: C_inf_v

    Geometry (in Angstrom), charge = 0, multiplicity = 2:

    O       
    H             1          R1

    R1        =    0.9662983833

gradient() will perform analytic gradient computation.

*** tstart() called on c1-17.compute.lan
*** at Tue Feb 23 13:35:21 2021

   => Loading Basis Set <=

    Name: AUG-CC-PVTZ
    Role: ORBITAL
    Keyword: BASIS
    atoms 1 entry O          line   331 file /apps/gb/PSI4/1.4.0/share/psi4/basis/aug-cc-pvtz.gbs 
    atoms 2 entry H          line    40 file /apps/gb/PSI4/1.4.0/share/psi4/basis/aug-cc-pvtz.gbs 


         ---------------------------------------------------------
                                   SCF
               by Justin Turney, Rob Parrish, Andy Simmonett
                          and Daniel G. A. Smith
                              UHF Reference
                        1 Threads,   9536 MiB Core
         ---------------------------------------------------------

  ==> Geometry <==

    Molecular point group: c2v
    Full point group: C_inf_v

    Geometry (in Angstrom), charge = 0, multiplicity = 2:

       Center              X                  Y                   Z               Mass       
    ------------   -----------------  -----------------  -----------------  -----------------
         O            0.000000000000     0.000000000000    -0.057276634192    15.994914619570
         H            0.000000000000     0.000000000000     0.909021749119     1.007825032230

  Running in c2v symmetry.

  Rotational constants: A = ************  B =     19.04258  C =     19.04258 [cm^-1]
  Rotational constants: A = ************  B = 570882.23824  C = 570882.23824 [MHz]
  Nuclear repulsion =    4.381066716526894

  Charge       = 0
  Multiplicity = 2
  Electrons    = 9
  Nalpha       = 5
  Nbeta        = 4

  ==> Algorithm <==

  SCF Algorithm Type is PK.
  DIIS enabled.
  MOM disabled.
  Fractional occupation disabled.
  Guess Type is READ.
  Energy threshold   = 1.00e-10
  Density threshold  = 1.00e-10
  Integral threshold = 0.00e+00

  ==> Primary Basis <==

  Basis Set: AUG-CC-PVTZ
    Blend: AUG-CC-PVTZ
    Number of shells: 23
    Number of basis function: 69
    Number of Cartesian functions: 80
    Spherical Harmonics?: true
    Max angular momentum: 3

   => Loading Basis Set <=

    Name: AUG-CC-PVTZ
    Role: ORBITAL
    Keyword: BASIS
    atoms 1 entry O          line   331 file /apps/gb/PSI4/1.4.0/share/psi4/basis/aug-cc-pvtz.gbs 
    atoms 2 entry H          line    40 file /apps/gb/PSI4/1.4.0/share/psi4/basis/aug-cc-pvtz.gbs 

  Reading orbitals from file 180, no projection.

  ==> Pre-Iterations <==

   -------------------------------------------------------
    Irrep   Nso     Nmo     Nalpha   Nbeta   Ndocc  Nsocc
   -------------------------------------------------------
     A1        30      30       0       0       0       0
     A2         7       7       0       0       0       0
     B1        16      16       0       0       0       0
     B2        16      16       0       0       0       0
   -------------------------------------------------------
    Total      69      69       5       4       4       1
   -------------------------------------------------------

  ==> Integral Setup <==

  Using in-core PK algorithm.
   Calculation information:
      Number of atoms:                   2
      Number of AO shells:              23
      Number of primitives:             41
      Number of atomic orbitals:        80
      Number of basis functions:        69

      Integral cutoff                 1.00e-12
      Number of threads:                 1

  Performing in-core PK
  Using 5834640 doubles for integral storage.
  We computed 38226 shell quartets total.
  Whereas there are 38226 unique shell quartets.

  ==> DiskJK: Disk-Based J/K Matrices <==

    J tasked:                  Yes
    K tasked:                  Yes
    wK tasked:                  No
    Memory [MiB]:             7152
    Schwarz Cutoff:          1E-12

    OpenMP threads:              1

  Minimum eigenvalue in the overlap matrix is 5.0014420019E-04.
  Using Symmetric Orthogonalization.

  SCF Guess: Orbitals guess was supplied from a previous computation.

  ==> Iterations <==

                        Total Energy        Delta E     RMS |[F,P]|

   @UHF iter   0:   -75.41194023324984   -7.54119e+01   1.22776e-03 
   @UHF iter   1:   -75.42173945714040   -9.79922e-03   1.40968e-04 DIIS
   @UHF iter   2:   -75.42175187354495   -1.24164e-05   2.82551e-05 DIIS
   @UHF iter   3:   -75.42175256556288   -6.92018e-07   9.76221e-06 DIIS
   @UHF iter   4:   -75.42175274689976   -1.81337e-07   4.40604e-06 DIIS
   @UHF iter   5:   -75.42175278316222   -3.62625e-08   2.34202e-06 DIIS
   @UHF iter   6:   -75.42175279595784   -1.27956e-08   1.01983e-06 DIIS
   @UHF iter   7:   -75.42175279912361   -3.16577e-09   2.29096e-07 DIIS
   @UHF iter   8:   -75.42175279925465   -1.31038e-10   2.73219e-08 DIIS
   @UHF iter   9:   -75.42175279925601   -1.36424e-12   5.84691e-09 DIIS
   @UHF iter  10:   -75.42175279925607   -5.68434e-14   1.77762e-09 DIIS
   @UHF iter  11:   -75.42175279925610   -2.84217e-14   3.51162e-10 DIIS
   @UHF iter  12:   -75.42175279925610    0.00000e+00   8.71857e-11 DIIS
  Energy and wave function converged.


  ==> Post-Iterations <==

   @Spin Contamination Metric:   7.037239794E-03
   @S^2 Expected:                7.500000000E-01
   @S^2 Observed:                7.570372398E-01
   @S   Expected:                5.000000000E-01
   @S   Observed:                5.000000000E-01

    Orbital Energies [Eh]
    ---------------------

    Alpha Occupied:                                                       

       1A1   -20.640811     2A1    -1.391148     3A1    -0.683971  
       1B1    -0.658762     1B2    -0.561886  

    Alpha Virtual:                                                        

       4A1     0.029885     5A1     0.136390     2B1     0.152694  
       2B2     0.162007     6A1     0.184109     7A1     0.262717  
       3B1     0.268777     3B2     0.275316     8A1     0.427053  
       9A1     0.630042     1A2     0.638710    10A1     0.649968  
       4B1     0.714328     4B2     0.729032     5B1     0.853297  
      11A1     0.876178     5B2     0.880627    12A1     0.925502  
       2A2     0.938225    13A1     0.939270     6B1     0.981740  
      14A1     1.000867     6B2     1.008305     7B1     1.497860  
       7B2     1.517142    15A1     1.695170    16A1     2.033022  
       8B1     2.043095     8B2     2.043115     3A2     2.097607  
      17A1     2.098203     9B1     2.252790     9B2     2.289770  
      18A1     2.321259     4A2     2.322249    19A1     2.440801  
      20A1     2.489401    10B1     2.727489    10B2     2.766140  
      21A1     3.583628    11B1     4.023332     5A2     4.032973  
      22A1     4.033223    11B2     4.080354    12B1     4.299613  
      12B2     4.312481    23A1     4.642227    24A1     5.120937  
      13B1     5.264810    13B2     5.303659    25A1     6.131274  
      14B1     6.431481    14B2     6.431505     6A2     6.594553  
      26A1     6.596244    27A1     6.965565     7A2     6.965615  
      15B1     7.133639    16B1     7.169127    15B2     7.185734  
      16B2     7.231022    28A1     7.377693    29A1     7.696628  
      30A1    12.966474  

    Beta Occupied:                                                        

       1A1   -20.601164     2A1    -1.233061     3A1    -0.640010  
       1B2    -0.513859  

    Beta Virtual:                                                         

       4A1     0.031026     1B1     0.063239     5A1     0.138915  
       2B2     0.164204     6A1     0.188328     2B1     0.210017  
       7A1     0.265941     3B2     0.275247     3B1     0.289754  
       8A1     0.437300     9A1     0.645860     1A2     0.655382  
      10A1     0.656652     4B2     0.727238     4B1     0.730949  
      11A1     0.880656     5B2     0.887394     5B1     0.912784  
      12A1     0.936643     2A2     0.940274    13A1     0.941152  
      14A1     1.011650     6B2     1.016166     6B1     1.059703  
       7B2     1.516825     7B1     1.522382    15A1     1.713876  
      16A1     2.055165     8B2     2.062173     8B1     2.062176  
       3A2     2.170693    17A1     2.172377     9B2     2.294094  
       9B1     2.298755    18A1     2.338320     4A2     2.338790  
      19A1     2.457634    20A1     2.503269    10B1     2.770956  
      10B2     2.772847    21A1     3.589227     5A2     4.035724  
      22A1     4.035755    11B2     4.098420    11B1     4.135429  
      12B1     4.305406    12B2     4.309319    23A1     4.652276  
      24A1     5.143977    13B1     5.306396    13B2     5.310997  
      25A1     6.155668    14B2     6.485812    14B1     6.485812  
       6A2     6.635179    26A1     6.635292     7A2     7.057747  
      27A1     7.057967    15B1     7.178658    15B2     7.194732  
      16B2     7.250859    16B1     7.255315    28A1     7.395135  
      29A1     7.725502    30A1    12.999439  

    Final Occupation by Irrep:
             A1    A2    B1    B2 
    DOCC [     3,    0,    0,    1 ]
    SOCC [     0,    0,    1,    0 ]

  @UHF Final Energy:   -75.42175279925610

   => Energetics <=

    Nuclear Repulsion Energy =              4.3810667165268944
    One-Electron Energy =                -112.6809679163252724
    Two-Electron Energy =                  32.8781484005422868
    Total Energy =                        -75.4217527992560974

  UHF NO Occupations:
  HONO-2 :    2 A1 1.9992201
  HONO-1 :    3 A1 1.9978776
  HONO-0 :    1 B1 1.0000000
  LUNO+0 :    4 A1 0.0021224
  LUNO+1 :    5 A1 0.0007799
  LUNO+2 :    2 B2 0.0006180
  LUNO+3 :    6 A1 0.0000011


Computation Completed


Properties will be evaluated at   0.000000,   0.000000,   0.000000 [a0]

Properties computed using the SCF density matrix

  Nuclear Dipole Moment: [e a0]
     X:     0.0000      Y:     0.0000      Z:     0.8519

  Electronic Dipole Moment: [e a0]
     X:     0.0000      Y:     0.0000      Z:    -0.1601

  Dipole Moment: [e a0]
     X:     0.0000      Y:     0.0000      Z:     0.6918     Total:     0.6918

  Dipole Moment: [D]
     X:     0.0000      Y:     0.0000      Z:     1.7584     Total:     1.7584


*** tstop() called on c1-17.compute.lan at Tue Feb 23 13:35:22 2021
Module time:
	user time   =       1.10 seconds =       0.02 minutes
	system time =       0.06 seconds =       0.00 minutes
	total time  =          1 seconds =       0.02 minutes
Total time:
	user time   =      10.53 seconds =       0.18 minutes
	system time =       6.18 seconds =       0.10 minutes
	total time  =         18 seconds =       0.30 minutes
 MINTS: Wrapper to libmints.
   by Justin Turney

   Calculation information:
      Number of threads:                 1
      Number of atoms:                   2
      Number of AO shells:              23
      Number of SO shells:              23
      Number of primitives:             41
      Number of atomic orbitals:        80
      Number of basis functions:        69

      Number of irreps:                  4
      Integral cutoff                 0.00e+00
      Number of functions per irrep: [  30    7   16   16 ]

 OEINTS: Overlap, kinetic, potential, dipole, and quadrupole integrals
         stored in file 35.

      Computing two-electron integrals...done
      Computed 673710 non-zero two-electron integrals.
        Stored in file 33.


*** tstart() called on c1-17.compute.lan
*** at Tue Feb 23 13:35:23 2021


	Wfn Parameters:
	--------------------
	Wavefunction         = CCSD
	Number of irreps     = 4
	Number of MOs        = 69
	Number of active MOs = 69
	AO-Basis             = NONE
	Semicanonical        = false
	Reference            = UHF
	Print Level          = 1

	IRREP	# MOs	# FZDC	# DOCC	# SOCC	# VIRT	# FZVR
	-----	-----	------	------	------	------	------
	 A1	   30	    0	    3	    0	    27	    0
	 A2	   7	    0	    0	    0	    7	    0
	 B1	   16	    0	    0	    1	    15	    0
	 B2	   16	    0	    1	    0	    15	    0
	Transforming integrals...
	IWL integrals will be deleted.
	(OO|OO)...
	Presorting SO-basis two-electron integrals.
	Sorting File: SO Ints (nn|nn) nbuckets = 1
	Transforming the one-electron integrals and constructing Fock matrices
	Starting AA/AB first half-transformation.
	Sorting AA/AB half-transformed integrals.
	Starting BB first half-transformation.
	Sorting BB half-transformed integrals.
	First half integral transformation complete.
	Starting AA second half-transformation.
	Starting AB second half-transformation.
	Starting BB second half-transformation.
	Two-electron integral transformation complete.
	(OO|OV)...
	Starting AA second half-transformation.
	Starting AB second half-transformation.
	Starting BB second half-transformation.
	Two-electron integral transformation complete.
	(OO|VV)...
	Starting AA second half-transformation.
	Starting AB second half-transformation.
	Starting BB second half-transformation.
	Two-electron integral transformation complete.
	(OV|OO)...
	Starting AA/AB first half-transformation.
	Sorting AA/AB half-transformed integrals.
	Starting BB first half-transformation.
	Sorting BB half-transformed integrals.
	First half integral transformation complete.
	Starting AA second half-transformation.
	Starting AB second half-transformation.
	Starting BB second half-transformation.
	Two-electron integral transformation complete.
	(OV|OV)...
	Starting AA second half-transformation.
	Starting AB second half-transformation.
	Starting BB second half-transformation.
	Two-electron integral transformation complete.
	(OV|VV)...
	Starting AA second half-transformation.
	Starting AB second half-transformation.
	Starting BB second half-transformation.
	Two-electron integral transformation complete.
	(VV|OO)...
	Starting AA/AB first half-transformation.
	Sorting AA/AB half-transformed integrals.
	Starting BB first half-transformation.
	Sorting BB half-transformed integrals.
	First half integral transformation complete.
	Starting AA second half-transformation.
	Starting AB second half-transformation.
	Starting BB second half-transformation.
	Two-electron integral transformation complete.
	(VV|OV)...
	Starting AA second half-transformation.
	Starting AB second half-transformation.
	Starting BB second half-transformation.
	Two-electron integral transformation complete.
	(VV|VV)...
	Starting AA second half-transformation.
	Starting AB second half-transformation.
	Starting BB second half-transformation.
	Two-electron integral transformation complete.
	Frozen core energy     =      0.00000000000000

	Size of irrep 0 of <AB|CD> integrals:      0.339 (MW) /      2.710 (MB)
	Size of irrep 1 of <AB|CD> integrals:      0.171 (MW) /      1.371 (MB)
	Size of irrep 2 of <AB|CD> integrals:      0.260 (MW) /      2.081 (MB)
	Size of irrep 3 of <AB|CD> integrals:      0.260 (MW) /      2.081 (MB)
	Total:                                     1.030 (MW) /      8.243 (MB)

	Size of irrep 0 of <ab|cd> integrals:      0.356 (MW) /      2.851 (MB)
	Size of irrep 1 of <ab|cd> integrals:      0.184 (MW) /      1.472 (MB)
	Size of irrep 2 of <ab|cd> integrals:      0.288 (MW) /      2.307 (MB)
	Size of irrep 3 of <ab|cd> integrals:      0.267 (MW) /      2.138 (MB)
	Total:                                     1.096 (MW) /      8.769 (MB)

	Size of irrep 0 of <Ab|Cd> integrals:      1.545 (MW) /     12.360 (MB)
	Size of irrep 1 of <Ab|Cd> integrals:      0.711 (MW) /      5.685 (MB)
	Size of irrep 2 of <Ab|Cd> integrals:      1.096 (MW) /      8.770 (MB)
	Size of irrep 3 of <Ab|Cd> integrals:      1.055 (MW) /      8.438 (MB)
	Total:                                     4.407 (MW) /     35.253 (MB)

	Size of irrep 0 of <IA|BC> integrals:      0.136 (MW) /      1.090 (MB)
	Size of irrep 1 of <IA|BC> integrals:      0.042 (MW) /      0.338 (MB)
	Size of irrep 2 of <IA|BC> integrals:      0.081 (MW) /      0.645 (MB)
	Size of irrep 3 of <IA|BC> integrals:      0.081 (MW) /      0.645 (MB)
	Total:                                     0.340 (MW) /      2.718 (MB)

	Size of irrep 0 of <ia|bc> integrals:      0.121 (MW) /      0.967 (MB)
	Size of irrep 1 of <ia|bc> integrals:      0.032 (MW) /      0.254 (MB)
	Size of irrep 2 of <ia|bc> integrals:      0.059 (MW) /      0.473 (MB)
	Size of irrep 3 of <ia|bc> integrals:      0.074 (MW) /      0.596 (MB)
	Total:                                     0.286 (MW) /      2.289 (MB)

	Size of irrep 0 of <Ia|Bc> integrals:      0.139 (MW) /      1.114 (MB)
	Size of irrep 1 of <Ia|Bc> integrals:      0.044 (MW) /      0.351 (MB)
	Size of irrep 2 of <Ia|Bc> integrals:      0.086 (MW) /      0.687 (MB)
	Size of irrep 3 of <Ia|Bc> integrals:      0.081 (MW) /      0.649 (MB)
	Total:                                     0.350 (MW) /      2.800 (MB)

	Size of irrep 0 of <iA|bC> integrals:      0.119 (MW) /      0.955 (MB)
	Size of irrep 1 of <iA|bC> integrals:      0.030 (MW) /      0.243 (MB)
	Size of irrep 2 of <iA|bC> integrals:      0.054 (MW) /      0.436 (MB)
	Size of irrep 3 of <iA|bC> integrals:      0.074 (MW) /      0.592 (MB)
	Total:                                     0.278 (MW) /      2.225 (MB)

	Size of irrep 0 of tIjAb amplitudes:       0.012 (MW) /      0.099 (MB)
	Size of irrep 1 of tIjAb amplitudes:       0.001 (MW) /      0.007 (MB)
	Size of irrep 2 of tIjAb amplitudes:       0.003 (MW) /      0.025 (MB)
	Size of irrep 3 of tIjAb amplitudes:       0.006 (MW) /      0.049 (MB)
	Total:                                     0.023 (MW) /      0.181 (MB)

	Nuclear Rep. energy          =      4.38106671652689
	SCF energy                   =    -75.42175279925610
	One-electron energy          =   -112.68096791709883
	Two-electron (AA) energy     =      7.74667262068721
	Two-electron (BB) energy     =      4.63455229486364
	Two-electron (AB) energy     =     20.49692348576498
	Two-electron energy          =     32.87814840131583
	Reference energy             =    -75.42175279925611

*** tstop() called on c1-17.compute.lan at Tue Feb 23 13:35:24 2021
Module time:
	user time   =       0.97 seconds =       0.02 minutes
	system time =       0.60 seconds =       0.01 minutes
	total time  =          1 seconds =       0.02 minutes
Total time:
	user time   =      11.71 seconds =       0.20 minutes
	system time =       6.79 seconds =       0.11 minutes
	total time  =         20 seconds =       0.33 minutes
            **************************
            *                        *
            *        CCENERGY        *
            *                        *
            **************************

    Nuclear Rep. energy (wfn)     =    4.381066716526894
    SCF energy          (wfn)     =  -75.421752799256097
    Reference energy    (file100) =  -75.421752799256112

    Input parameters:
    -----------------
    Wave function   =     CCSD
    Reference wfn   =     UHF
    Brueckner       =     No
    Memory (Mbytes) =     10000.0
    Maxiter         =     50
    R_Convergence   =     1.0e-10
    E_Convergence   =     1.0e-10
    Restart         =     Yes
    DIIS            =     Yes
    AO Basis        =     NONE
    ABCD            =     NEW
    Cache Level     =     2
    Cache Type      =     LRU
    Print Level     =     1
    Num. of threads =     1
    # Amps to Print =     10
    Print MP2 Amps? =     No
    Analyze T2 Amps =     No
    Print Pair Ener =     No
    Local CC        =     No
    SCS-MP2         =     False
    SCSN-MP2        =     False
    SCS-CCSD        =     False

    Using old T1 amplitudes.
    Using old T2 amplitudes.
MP2 correlation energy -0.2180976949115477
                Solving CC Amplitude Equations
                ------------------------------
  Iter             Energy              RMS        T1Diag      D1Diag    New D1Diag    D2Diag
  ----     ---------------------    ---------   ----------  ----------  ----------   --------
     0        -0.203664434713429    0.000e+00    0.012110    0.000000    0.000000    0.000000
     1        -0.230112657696862    8.230e-02    0.013224    0.000000    0.000000    0.000000
     2        -0.230921900745547    1.545e-02    0.012398    0.000000    0.000000    0.000000
     3        -0.231306770866464    3.600e-03    0.012415    0.000000    0.000000    0.000000
     4        -0.231330138485102    9.740e-04    0.012397    0.000000    0.000000    0.000000
     5        -0.231329384216011    2.645e-04    0.012399    0.000000    0.000000    0.000000
     6        -0.231334681659387    1.093e-04    0.012396    0.000000    0.000000    0.000000
     7        -0.231335723231436    4.650e-05    0.012396    0.000000    0.000000    0.000000
     8        -0.231336167923499    1.707e-05    0.012397    0.000000    0.000000    0.000000
     9        -0.231336256596330    5.960e-06    0.012397    0.000000    0.000000    0.000000
    10        -0.231336285706712    2.249e-06    0.012397    0.000000    0.000000    0.000000
    11        -0.231336297109106    7.948e-07    0.012397    0.000000    0.000000    0.000000
    12        -0.231336301231963    2.827e-07    0.012397    0.000000    0.000000    0.000000
    13        -0.231336301599516    9.685e-08    0.012397    0.000000    0.000000    0.000000
    14        -0.231336301938771    3.269e-08    0.012397    0.000000    0.000000    0.000000
    15        -0.231336302166904    1.241e-08    0.012397    0.000000    0.000000    0.000000
    16        -0.231336302183554    4.384e-09    0.012397    0.000000    0.000000    0.000000
    17        -0.231336302209632    1.760e-09    0.012397    0.000000    0.000000    0.000000
    18        -0.231336302226609    8.289e-10    0.012397    0.000000    0.000000    0.000000
    19        -0.231336302239335    3.865e-10    0.012397    0.000000    0.000000    0.000000
    20        -0.231336302245476    1.588e-10    0.012397    0.000000    0.000000    0.000000
    21        -0.231336302245536    6.682e-11    0.012397    0.000000    0.000000    0.000000

    Iterations converged.


    Largest TIA Amplitudes:
              4  49        -0.0139053006
              3  34        -0.0137540718
              4  50        -0.0091045356
              3  35        -0.0087476722
              2   3        -0.0056195940
              3  37        -0.0055827784
              2   1         0.0052810735
              1   2        -0.0048872844
              4  52        -0.0046779905
              3  36        -0.0037473683

    Largest Tia Amplitudes:
              3  50        -0.0112486931
              3  51        -0.0083984020
              1  13        -0.0054832309
              1   6        -0.0053868485
              3  59         0.0047846266
              1   4         0.0044394276
              2  19         0.0040785873
              2   3        -0.0039209254
              2  15         0.0039006104
              3  52        -0.0038878771

    Largest TIJAB Amplitudes:
      4   3  29  13         0.0139866658
      4   3  52  37        -0.0118097853
      4   2  51   6         0.0100009886
      4   3  53  37        -0.0098994393
      3   2  37   8        -0.0098024229
      4   2  52   8        -0.0090260806
      4   3  27  13         0.0090124715
      3   2  36   5         0.0089487441
      4   3  49  37        -0.0086447823
      3   2  37   4        -0.0079746877

    Largest Tijab Amplitudes:
      3   2  52   5         0.0110395519
      3   2  53   8        -0.0084884588
      3   2  55   5         0.0084568562
      3   1  34  27        -0.0078775489
      3   1  34  29         0.0077559183
      3   2  54   4        -0.0076512639
      3   2  54   8        -0.0070241189
      3   2  50   4        -0.0067201049
      3   2  50   8        -0.0066685348
      2   1  37  34         0.0066257470

    Largest TIjAb Amplitudes:
      2   2   4   4        -0.0202183336
      4   3  52  53        -0.0193062841
      4   3  53  54        -0.0183974976
      4   3  52  54        -0.0181240845
      3   1   5  34         0.0169147221
      4   1  29  34         0.0165466905
      2   2   8   8        -0.0164398713
      3   1  13  34        -0.0162334489
      4   3  53  53        -0.0159265276
      3   3  37  53        -0.0148350884

    SCF energy       (wfn)                    =  -75.421752799256097
    Reference energy (file100)                =  -75.421752799256112

    Opposite-spin MP2 correlation energy      =   -0.167425515131693
    Same-spin MP2 correlation energy          =   -0.050672179779854
    MP2 correlation energy                    =   -0.218097694911548
      * MP2 total energy                      =  -75.639850494167661

    Opposite-spin CCSD correlation energy     =   -0.183384777371833
    Same-spin CCSD correlation energy         =   -0.047951524873703
    CCSD correlation energy                   =   -0.231336302245536
      * CCSD total energy                     =  -75.653089101501649


			**************************
			*                        *
			*         CCHBAR         *
			*                        *
			**************************


			**************************
			*        CCLAMBDA        *
			**************************


	Nuclear Rep. energy (wfn)     =    4.381066716526894
	Reference           (wfn)     =                    2
	SCF energy          (wfn)     =  -75.421752799256097
	Reference energy    (CC_INFO) =  -75.421752799256112
	CCSD energy         (CC_INFO) =   -0.231336302245536
	Total CCSD energy   (CC_INFO) =  -75.653089101501649

	Input parameters:
	-----------------
	Maxiter           =     50
	Convergence       = 1.0e-07
	Restart           =     No
	Cache Level       =     2
	Model III         =     No
	DIIS              =     Yes
	AO Basis          =     No
	ABCD              =     NEW
	Local CC          =     No
	Parameters for left-handed eigenvectors:
	    Irr   Root  Ground-State?    EOM energy        R0
	  1   0     0        Yes       0.0000000000   1.0000000000
	Labels for eigenvector 1:
	LIA 0 -1, Lia 0 -1, LIJAB 0 -1, Lijab 0 -1, LIjAb 0 -1, 2LIjAb - LIjbA 0 -1
	Symmetry of left-hand state: B1
	Symmetry of left-hand eigenvector: A1

	          Solving Lambda Equations
	          ------------------------
	Iter     PseudoEnergy or Norm         RMS  
	----     ---------------------     --------
	   0        -0.231351312560499    5.621e-08
	   1        -0.227067883367040    9.954e-03
	   2        -0.226526423921836    2.159e-03
	   3        -0.226410102343291    1.074e-03
	   4        -0.226408737823267    2.974e-04
	   5        -0.226414302831000    8.253e-05
	   6        -0.226412461072404    3.452e-05
	   7        -0.226411715481664    1.565e-05
	   8        -0.226411804217852    4.831e-06
	   9        -0.226411718811748    1.703e-06
	  10        -0.226411707618987    5.285e-07
	  11        -0.226411700912250    1.858e-07
	  12        -0.226411702380166    6.620e-08

	Largest LIA Amplitudes:
	          3  34        -0.0101152187
	          4  49        -0.0097984723
	          3  35        -0.0063496492
	          4  50        -0.0062672897
	          1   2        -0.0037928116
	          3  37        -0.0037314827
	          2   3        -0.0036854246
	          2  12        -0.0032246522
	          4  52        -0.0031288154
	          1   5         0.0029316462

	Largest Lia Amplitudes:
	          3  50        -0.0066451282
	          3  51        -0.0051704862
	          1  13        -0.0051625345
	          1   6        -0.0050840159
	          1   4         0.0048373206
	          3  59         0.0040441046
	          1  10         0.0040355781
	          2  10         0.0039058853
	          2  15         0.0036105292
	          2  19         0.0034327849

	Largest LIJAB Amplitudes:
	  4   3  29  13         0.0136674360
	  4   3  52  37        -0.0116519219
	  4   3  53  37        -0.0097828777
	  3   2  37   8        -0.0096531089
	  4   2  51   6         0.0096362394
	  4   2  52   8        -0.0088509114
	  4   3  27  13         0.0087851307
	  3   2  36   5         0.0086556158
	  4   3  49  37        -0.0084605187
	  3   2  37   4        -0.0078131629

	Largest Lijab Amplitudes:
	  3   2  52   5         0.0106016490
	  3   2  53   8        -0.0082578290
	  3   2  55   5         0.0081525357
	  3   1  34  27        -0.0076251608
	  3   1  34  29         0.0075746710
	  3   2  54   4        -0.0073908963
	  3   2  54   8        -0.0068659918
	  3   2  50   8        -0.0064224334
	  2   1  37  34         0.0064092017
	  3   2  50   4        -0.0063997486

	Largest LIjAb Amplitudes:
	  2   2   4   4        -0.0195903397
	  4   3  52  53        -0.0189552680
	  4   3  53  54        -0.0180414420
	  4   3  52  54        -0.0178129002
	  3   1   5  34         0.0164545779
	  4   1  29  34         0.0161552818
	  2   2   8   8        -0.0160912401
	  3   1  13  34        -0.0158836772
	  4   3  53  53        -0.0156519245
	  3   3  37  53        -0.0145750398

	Iterations converged.

	Overlap <L|e^T> =        0.94568202017

			**************************
			*                        *
			*        CCDENSITY       *
			*                        *
			**************************


	Input parameters:
	-----------------
	Wave function    =   CCSD
	Reference wfn    =   UHF
	Dertype          = 1
	Tolerance        = 1.0e-14
	Cache Level      = 2
	AO Basis         = No
	OPDM Only        = No
	Relax OPDM       = Yes
	Compute Xi       = No
	Use Zeta         = No
	Xi connected     = Yes
	Compute NO       = No

	Nuclear Rep. energy (wfn)     =    4.381066716526894
	SCF energy          (wfn)     =  -75.421752799256097
	Reference energy    (file100) =  -75.421752799256112
	CCSD energy         (CC_INFO) =   -0.231336302245536
	Total CCSD energy   (CC_INFO) =  -75.653089101501649
	Number of States = 1

	Ground?  State     EOM Energy       R0
	  Yes     0 A1    0.0000000000   1.00000000
  Cartesian Displacement SALCs
  By SALC:
  Number of SALCs: 2, nirreps: A1
  Project out translations: False
  Project out rotations: False
	irrep = 0, ncomponent = 1
		0: atom 0, direction z, coef 1.000000
	irrep = 0, ncomponent = 1
		0: atom 1, direction z, coef 1.000000

  By Atomic Center:
  Number of atomic centers: 2
   Atomic Center 0:
	x component, size = 0
	y component, size = 0
	z component, size = 1
		0: salc 0, irrep 0, coef 1.000000
   Atomic Center 1:
	x component, size = 0
	y component, size = 0
	z component, size = 1
		0: salc 1, irrep 0, coef 1.000000

    Molecular point group: c2v
    Full point group: C_inf_v

    Geometry (in Bohr), charge = 0, multiplicity = 2:

       Center              X                  Y                   Z       
    ------------   -----------------  -----------------  -----------------
         O            0.000000000000     0.000000000000    -0.108237152012
         H            0.000000000000     0.000000000000     1.717802147920

	Presorting MO-basis TPDMs.
	Sorting File: MO TPDM (AA|AA) nbuckets = 1
	Sorting File: MO TPDM (AA|aa) nbuckets = 1
	Sorting File: MO TPDM (aa|aa) nbuckets = 1
	Starting first half-transformation.
	Sorting half-transformed TPDMs.
	First half integral transformation complete.


  -Nuclear Repulsion Energy 1st Derivatives:
     Atom            X                  Y                   Z
    ------   -----------------  -----------------  -----------------
       1        0.000000000000     0.000000000000     2.399218196832
       2        0.000000000000     0.000000000000    -2.399218196832


  -Core Hamiltonian Gradient:
     Atom            X                  Y                   Z
    ------   -----------------  -----------------  -----------------
       1        0.000000000000     0.000000000000    -4.856531977696
       2        0.000000000000     0.000000000000     4.856531977696


  -Lagrangian contribution to gradient:
     Atom            X                  Y                   Z
    ------   -----------------  -----------------  -----------------
       1        0.000000000000     0.000000000000     0.264795883693
       2        0.000000000000     0.000000000000    -0.264795883693


  -Two-electron contribution to gradient:
     Atom            X                  Y                   Z
    ------   -----------------  -----------------  -----------------
       1        0.000000000000     0.000000000000     2.193565168678
       2        0.000000000000     0.000000000000    -2.193565168678


  -Total gradient:
     Atom            X                  Y                   Z
    ------   -----------------  -----------------  -----------------
       1        0.000000000000     0.000000000000     0.001047271507
       2        0.000000000000     0.000000000000    -0.001047271507


			-----------------------------------------
			 OPTKING 2.0: for geometry optimizations 
			  - R.A. King,  Bethel University        
			-----------------------------------------

	Previous internal coordinate definitions found.
	---Fragment 1 Geometry and Gradient---
	 O           0.0000000000        0.0000000000       -0.1082371520
	 H           0.0000000000        0.0000000000        1.7178021479
	             0.0000000000        0.0000000000        0.0010472715
	             0.0000000000        0.0000000000       -0.0010472715

	---Fragment 1 Intrafragment Coordinates---
	 - Coordinate -           - BOHR/RAD -       - ANG/DEG -
	 R(1,2)           =         1.826039	       0.966298

	Current energy   :       -75.6530891015

	Energy change for the previous step:
		Projected    :        -0.0000993748
		Actual       :        -0.0003631282
	Energy ratio indicates good step: Trust radius increased to 1.000e+00.


	Performing BFGS update.
	Previous computed or guess Hessian on step 1.
	Steps to be used in Hessian update: 1
	Taking RFO optimization step.
	Going to follow RFO solution 1.
	Using RFO vector 1.
	Norm of target step-size    0.00190
	Projected energy change by RFO approximation:        -0.0000001877

	Back-transformation to cartesian coordinates...
	Successfully converged to displaced geometry.

	--- Internal Coordinate Step in ANG or DEG, aJ/ANG or AJ/DEG ---
	 ---------------------------------------------------------------------------
	   Coordinate                Previous        Force       Change         New 
	   ----------                --------       ------       ------       ------
	    1 R(1,2)          =      0.966298     0.008628     0.001004     0.967302
	 ---------------------------------------------------------------------------
	Successfully symmetrized geometry.

  ==> Convergence Check <==

  Measures of convergence in internal coordinates in au.
  Criteria marked as inactive (o), active & met (*), and active & unmet ( ).
  ---------------------------------------------------------------------------------------------
   Step     Total Energy     Delta E     MAX Force     RMS Force      MAX Disp      RMS Disp   
  ---------------------------------------------------------------------------------------------
    Convergence Criteria             o    2.00e-06 *    1.00e-06 *    6.00e-06 *    4.00e-06 *
  ---------------------------------------------------------------------------------------------
      2     -75.65308910   -3.63e-04 o    1.05e-03      1.05e-03      1.90e-03      1.90e-03    ~
  ---------------------------------------------------------------------------------------------

	Writing optimization data to binary file.
	Structure for next step:
	Cartesian Geometry (in Angstrom)
	    O     0.0000000000   0.0000000000  -0.0577784535
	    H     0.0000000000   0.0000000000   0.9095235651
			--------------------------
			 OPTKING Finished Execution 
			--------------------------

    Structure for next step:
    Molecular point group: c2v
    Full point group: C_inf_v

    Geometry (in Angstrom), charge = 0, multiplicity = 2:

    O       
    H             1          R1

    R1        =    0.9673020225

gradient() will perform analytic gradient computation.

*** tstart() called on c1-17.compute.lan
*** at Tue Feb 23 13:35:38 2021

   => Loading Basis Set <=

    Name: AUG-CC-PVTZ
    Role: ORBITAL
    Keyword: BASIS
    atoms 1 entry O          line   331 file /apps/gb/PSI4/1.4.0/share/psi4/basis/aug-cc-pvtz.gbs 
    atoms 2 entry H          line    40 file /apps/gb/PSI4/1.4.0/share/psi4/basis/aug-cc-pvtz.gbs 


         ---------------------------------------------------------
                                   SCF
               by Justin Turney, Rob Parrish, Andy Simmonett
                          and Daniel G. A. Smith
                              UHF Reference
                        1 Threads,   9536 MiB Core
         ---------------------------------------------------------

  ==> Geometry <==

    Molecular point group: c2v
    Full point group: C_inf_v

    Geometry (in Angstrom), charge = 0, multiplicity = 2:

       Center              X                  Y                   Z               Mass       
    ------------   -----------------  -----------------  -----------------  -----------------
         O            0.000000000000     0.000000000000    -0.057336124174    15.994914619570
         H            0.000000000000     0.000000000000     0.909965898291     1.007825032230

  Running in c2v symmetry.

  Rotational constants: A = ************  B =     19.00309  C =     19.00309 [cm^-1]
  Rotational constants: A = ************  B = 569698.19745  C = 569698.19745 [MHz]
  Nuclear repulsion =    4.376521073091983

  Charge       = 0
  Multiplicity = 2
  Electrons    = 9
  Nalpha       = 5
  Nbeta        = 4

  ==> Algorithm <==

  SCF Algorithm Type is PK.
  DIIS enabled.
  MOM disabled.
  Fractional occupation disabled.
  Guess Type is READ.
  Energy threshold   = 1.00e-10
  Density threshold  = 1.00e-10
  Integral threshold = 0.00e+00

  ==> Primary Basis <==

  Basis Set: AUG-CC-PVTZ
    Blend: AUG-CC-PVTZ
    Number of shells: 23
    Number of basis function: 69
    Number of Cartesian functions: 80
    Spherical Harmonics?: true
    Max angular momentum: 3

   => Loading Basis Set <=

    Name: AUG-CC-PVTZ
    Role: ORBITAL
    Keyword: BASIS
    atoms 1 entry O          line   331 file /apps/gb/PSI4/1.4.0/share/psi4/basis/aug-cc-pvtz.gbs 
    atoms 2 entry H          line    40 file /apps/gb/PSI4/1.4.0/share/psi4/basis/aug-cc-pvtz.gbs 

  Reading orbitals from file 180, no projection.

  ==> Pre-Iterations <==

   -------------------------------------------------------
    Irrep   Nso     Nmo     Nalpha   Nbeta   Ndocc  Nsocc
   -------------------------------------------------------
     A1        30      30       0       0       0       0
     A2         7       7       0       0       0       0
     B1        16      16       0       0       0       0
     B2        16      16       0       0       0       0
   -------------------------------------------------------
    Total      69      69       5       4       4       1
   -------------------------------------------------------

  ==> Integral Setup <==

  Using in-core PK algorithm.
   Calculation information:
      Number of atoms:                   2
      Number of AO shells:              23
      Number of primitives:             41
      Number of atomic orbitals:        80
      Number of basis functions:        69

      Integral cutoff                 1.00e-12
      Number of threads:                 1

  Performing in-core PK
  Using 5834640 doubles for integral storage.
  We computed 38226 shell quartets total.
  Whereas there are 38226 unique shell quartets.

  ==> DiskJK: Disk-Based J/K Matrices <==

    J tasked:                  Yes
    K tasked:                  Yes
    wK tasked:                  No
    Memory [MiB]:             7152
    Schwarz Cutoff:          1E-12

    OpenMP threads:              1

  Minimum eigenvalue in the overlap matrix is 5.0138715917E-04.
  Using Symmetric Orthogonalization.

  SCF Guess: Orbitals guess was supplied from a previous computation.

  ==> Iterations <==

                        Total Energy        Delta E     RMS |[F,P]|

   @UHF iter   0:   -75.42118675751678   -7.54212e+01   6.41053e-05 
   @UHF iter   1:   -75.42172280925826   -5.36052e-04   7.52397e-06 DIIS
   @UHF iter   2:   -75.42172284500766   -3.57494e-08   1.51458e-06 DIIS
   @UHF iter   3:   -75.42172284710395   -2.09629e-09   5.40700e-07 DIIS
   @UHF iter   4:   -75.42172284768216   -5.78211e-10   2.35779e-07 DIIS
   @UHF iter   5:   -75.42172284779639   -1.14227e-10   1.26856e-07 DIIS
   @UHF iter   6:   -75.42172284783263   -3.62377e-11   5.66821e-08 DIIS
   @UHF iter   7:   -75.42172284784229   -9.66338e-12   1.24273e-08 DIIS
   @UHF iter   8:   -75.42172284784266   -3.69482e-13   1.50414e-09 DIIS
   @UHF iter   9:   -75.42172284784272   -5.68434e-14   3.39504e-10 DIIS
   @UHF iter  10:   -75.42172284784260    1.13687e-13   1.01527e-10 DIIS
   @UHF iter  11:   -75.42172284784266   -5.68434e-14   2.83641e-11 DIIS
  Energy and wave function converged.


  ==> Post-Iterations <==

   @Spin Contamination Metric:   7.050689832E-03
   @S^2 Expected:                7.500000000E-01
   @S^2 Observed:                7.570506898E-01
   @S   Expected:                5.000000000E-01
   @S   Observed:                5.000000000E-01

    Orbital Energies [Eh]
    ---------------------

    Alpha Occupied:                                                       

       1A1   -20.640895     2A1    -1.390855     3A1    -0.683683  
       1B1    -0.658722     1B2    -0.561844  

    Alpha Virtual:                                                        

       4A1     0.029873     5A1     0.136378     2B1     0.152716  
       2B2     0.162034     6A1     0.184065     7A1     0.262672  
       3B1     0.268743     3B2     0.275278     8A1     0.426846  
       9A1     0.629968     1A2     0.638705    10A1     0.649864  
       4B1     0.714352     4B2     0.729053     5B1     0.853421  
      11A1     0.875970     5B2     0.880743    12A1     0.925748  
       2A2     0.938138    13A1     0.939186     6B1     0.981594  
      14A1     1.000497     6B2     1.008177     7B1     1.497377  
       7B2     1.516623    15A1     1.695576    16A1     2.031783  
       8B1     2.043136     8B2     2.043156     3A2     2.097623  
      17A1     2.098214     9B1     2.252530     9B2     2.289535  
      18A1     2.320982     4A2     2.321962    19A1     2.441924  
      20A1     2.488634    10B1     2.727486    10B2     2.766089  
      21A1     3.582149    11B1     4.022686     5A2     4.032137  
      22A1     4.032386    11B2     4.079757    12B1     4.299383  
      12B2     4.312190    23A1     4.640957    24A1     5.118038  
      13B1     5.261993    13B2     5.300811    25A1     6.131811  
      14B1     6.431522    14B2     6.431546     6A2     6.594167  
      26A1     6.595861    27A1     6.965565     7A2     6.965625  
      15B1     7.132806    16B1     7.167612    15B2     7.184524  
      16B2     7.229898    28A1     7.375067    29A1     7.694444  
      30A1    12.948014  

    Beta Occupied:                                                        

[...]
	Size of irrep 1 of <Ia|Bc> integrals:      0.044 (MW) /      0.351 (MB)
	Size of irrep 2 of <Ia|Bc> integrals:      0.086 (MW) /      0.687 (MB)
	Size of irrep 3 of <Ia|Bc> integrals:      0.081 (MW) /      0.649 (MB)
	Total:                                     0.350 (MW) /      2.800 (MB)

	Size of irrep 0 of <iA|bC> integrals:      0.119 (MW) /      0.955 (MB)
	Size of irrep 1 of <iA|bC> integrals:      0.030 (MW) /      0.243 (MB)
	Size of irrep 2 of <iA|bC> integrals:      0.054 (MW) /      0.436 (MB)
	Size of irrep 3 of <iA|bC> integrals:      0.074 (MW) /      0.592 (MB)
	Total:                                     0.278 (MW) /      2.225 (MB)

	Size of irrep 0 of tIjAb amplitudes:       0.012 (MW) /      0.099 (MB)
	Size of irrep 1 of tIjAb amplitudes:       0.001 (MW) /      0.007 (MB)
	Size of irrep 2 of tIjAb amplitudes:       0.003 (MW) /      0.025 (MB)
	Size of irrep 3 of tIjAb amplitudes:       0.006 (MW) /      0.049 (MB)
	Total:                                     0.023 (MW) /      0.181 (MB)

	Nuclear Rep. energy          =      4.37620320242086
	SCF energy                   =    -75.42172068024463
	One-electron energy          =   -112.67245049874124
	Two-electron (AA) energy     =      7.74599159300922
	Two-electron (BB) energy     =      4.63375146773329
	Two-electron (AB) energy     =     20.49478355533325
	Two-electron energy          =     32.87452661607576
	Reference energy             =    -75.42172068024462

*** tstop() called on c1-17.compute.lan at Tue Feb 23 13:36:11 2021
Module time:
	user time   =       1.21 seconds =       0.02 minutes
	system time =       0.68 seconds =       0.01 minutes
	total time  =          2 seconds =       0.03 minutes
Total time:
	user time   =      37.38 seconds =       0.62 minutes
	system time =      24.10 seconds =       0.40 minutes
	total time  =         67 seconds =       1.12 minutes
            **************************
            *                        *
            *        CCENERGY        *
            *                        *
            **************************

    Nuclear Rep. energy (wfn)     =    4.376203202420858
    SCF energy          (wfn)     =  -75.421720680244633
    Reference energy    (file100) =  -75.421720680244619

    Input parameters:
    -----------------
    Wave function   =     CCSD
    Reference wfn   =     UHF
    Brueckner       =     No
    Memory (Mbytes) =     10000.0
    Maxiter         =     50
    R_Convergence   =     1.0e-10
    E_Convergence   =     1.0e-10
    Restart         =     Yes
    DIIS            =     Yes
    AO Basis        =     NONE
    ABCD            =     NEW
    Cache Level     =     2
    Cache Type      =     LRU
    Print Level     =     1
    Num. of threads =     1
    # Amps to Print =     10
    Print MP2 Amps? =     No
    Analyze T2 Amps =     No
    Print Pair Ener =     No
    Local CC        =     No
    SCS-MP2         =     False
    SCSN-MP2        =     False
    SCS-CCSD        =     False

    Using old T1 amplitudes.
    Using old T2 amplitudes.
MP2 correlation energy -0.2181289170082886
                Solving CC Amplitude Equations
                ------------------------------
  Iter             Energy              RMS        T1Diag      D1Diag    New D1Diag    D2Diag
  ----     ---------------------    ---------   ----------  ----------  ----------   --------
     0        -0.231369337589454    0.000e+00    0.012414    0.000000    0.000000    0.000000
     1        -0.231369464302213    9.302e-06    0.012414    0.000000    0.000000    0.000000
     2        -0.231369470549821    2.024e-06    0.012414    0.000000    0.000000    0.000000
     3        -0.231369481246756    4.893e-07    0.012414    0.000000    0.000000    0.000000
     4        -0.231369481118159    1.187e-07    0.012414    0.000000    0.000000    0.000000
     5        -0.231369482500261    3.792e-08    0.012414    0.000000    0.000000    0.000000
     6        -0.231369482705629    1.869e-08    0.012414    0.000000    0.000000    0.000000
     7        -0.231369482833913    6.272e-09    0.012414    0.000000    0.000000    0.000000
     8        -0.231369482866242    2.677e-09    0.012414    0.000000    0.000000    0.000000
     9        -0.231369482876122    8.875e-10    0.012414    0.000000    0.000000    0.000000
    10        -0.231369482883153    2.316e-10    0.012414    0.000000    0.000000    0.000000
    11        -0.231369482885161    7.823e-11    0.012414    0.000000    0.000000    0.000000

    Iterations converged.


    Largest TIA Amplitudes:
              4  49        -0.0139267389
              3  34        -0.0137718056
              4  50        -0.0091120109
              3  35        -0.0087505572
              2   3        -0.0056319260
              3  37        -0.0055875436
              2   1         0.0052958034
              1   2        -0.0048895701
              4  52        -0.0046814750
              2  12        -0.0037496847

    Largest Tia Amplitudes:
              3  50        -0.0112680923
              3  51        -0.0084074054
              1  13        -0.0054800680
              1   6        -0.0053737971
              3  59         0.0047884485
              1   4         0.0044624846
              2  19         0.0040863638
              2   3        -0.0039133243
              2  15         0.0039075410
              3  52        -0.0038913560

    Largest TIJAB Amplitudes:
      4   3  29  13         0.0139842369
      4   3  52  37        -0.0118020397
      4   2  51   6         0.0099852562
      4   3  53  37        -0.0099091685
      3   2  37   8        -0.0098075803
      4   2  52   8        -0.0090301114
      4   3  27  13         0.0090108294
      3   2  36   5         0.0089643817
      4   3  49  37        -0.0086460367
      3   2  37   4        -0.0079840188

    Largest Tijab Amplitudes:
      3   2  52   5         0.0110297049
      3   2  55   5         0.0084415226
      3   2  53   8        -0.0084011502
      3   1  34  27        -0.0078790684
      3   1  34  29         0.0077547884
      3   2  54   4        -0.0076746654
      3   2  54   8        -0.0069286970
      3   2  50   4        -0.0067354452
      2   1  37  34         0.0066272579
      3   2  50   8        -0.0065896692

    Largest TIjAb Amplitudes:
      2   2   4   4        -0.0203128380
      4   3  52  53        -0.0192831770
      4   3  53  54        -0.0184371296
      4   3  52  54        -0.0181359065
      3   1   5  34         0.0169098762
      4   1  29  34         0.0165469527
      2   2   8   8        -0.0162616823
      3   1  13  34        -0.0162456424
      4   3  53  53        -0.0159304136
      3   3  37  53        -0.0148224189

    SCF energy       (wfn)                    =  -75.421720680244633
    Reference energy (file100)                =  -75.421720680244619

    Opposite-spin MP2 correlation energy      =   -0.167449340359741
    Same-spin MP2 correlation energy          =   -0.050679576648547
    MP2 correlation energy                    =   -0.218128917008289
      * MP2 total energy                      =  -75.639849597252905

    Opposite-spin CCSD correlation energy     =   -0.183415414304570
    Same-spin CCSD correlation energy         =   -0.047954068580591
    CCSD correlation energy                   =   -0.231369482885161
      * CCSD total energy                     =  -75.653090163129775


			**************************
			*                        *
			*         CCHBAR         *
			*                        *
			**************************


			**************************
			*        CCLAMBDA        *
			**************************


	Nuclear Rep. energy (wfn)     =    4.376203202420858
	Reference           (wfn)     =                    2
	SCF energy          (wfn)     =  -75.421720680244633
	Reference energy    (CC_INFO) =  -75.421720680244619
	CCSD energy         (CC_INFO) =   -0.231369482885161
	Total CCSD energy   (CC_INFO) =  -75.653090163129775

	Input parameters:
	-----------------
	Maxiter           =     50
	Convergence       = 1.0e-07
	Restart           =     No
	Cache Level       =     2
	Model III         =     No
	DIIS              =     Yes
	AO Basis          =     No
	ABCD              =     NEW
	Local CC          =     No
	Parameters for left-handed eigenvectors:
	    Irr   Root  Ground-State?    EOM energy        R0
	  1   0     0        Yes       0.0000000000   1.0000000000
	Labels for eigenvector 1:
	LIA 0 -1, Lia 0 -1, LIJAB 0 -1, Lijab 0 -1, LIjAb 0 -1, 2LIjAb - LIjbA 0 -1
	Symmetry of left-hand state: B1
	Symmetry of left-hand eigenvector: A1

	          Solving Lambda Equations
	          ------------------------
	Iter     PseudoEnergy or Norm         RMS  
	----     ---------------------     --------
	   0        -0.231384450097513    6.688e-08
	   1        -0.227096159184509    9.966e-03
	   2        -0.226553990208804    2.163e-03
	   3        -0.226437427492161    1.076e-03
	   4        -0.226436016858525    2.979e-04
	   5        -0.226441599105061    8.269e-05
	   6        -0.226439754841945    3.460e-05
	   7        -0.226439007237164    1.569e-05
	   8        -0.226439095986805    4.848e-06
	   9        -0.226439010103197    1.710e-06
	  10        -0.226438998850491    5.317e-07
	  11        -0.226438992069326    1.873e-07
	  12        -0.226438993548689    6.689e-08

	Largest LIA Amplitudes:
	          3  34        -0.0101279749
	          4  49        -0.0098139764
	          3  35        -0.0063506187
	          4  50        -0.0062719066
	          1   2        -0.0037957659
	          3  37        -0.0037358839
	          2   3        -0.0036978033
	          2  12        -0.0032352941
	          4  52        -0.0031328766
	          1   5         0.0029331554

	Largest Lia Amplitudes:
	          3  50        -0.0066568051
	          3  51        -0.0051753696
	          1  13        -0.0051594847
	          1   6        -0.0050725419
	          1   4         0.0048576601
	          3  59         0.0040469246
	          1  10         0.0040372804
	          2  10         0.0039260544
	          2  15         0.0036159110
	          2  19         0.0034395897

	Largest LIJAB Amplitudes:
	  4   3  29  13         0.0136649483
	  4   3  52  37        -0.0116445884
	  4   3  53  37        -0.0097927809
	  3   2  37   8        -0.0096579718
	  4   2  51   6         0.0096206971
	  4   2  52   8        -0.0088545865
	  4   3  27  13         0.0087834659
	  3   2  36   5         0.0086704009
	  4   3  49  37        -0.0084619897
	  3   2  37   4        -0.0078221768

	Largest Lijab Amplitudes:
	  3   2  52   5         0.0105917035
	  3   2  53   8        -0.0081724137
	  3   2  55   5         0.0081372276
	  3   1  34  27        -0.0076265159
	  3   1  34  29         0.0075735096
	  3   2  54   4        -0.0074131283
	  3   2  54   8        -0.0067732665
	  3   2  50   4        -0.0064140010
	  2   1  37  34         0.0064103978
	  3   2  50   8        -0.0063464680

	Largest LIjAb Amplitudes:
	  2   2   4   4        -0.0196812249
	  4   3  52  53        -0.0189328397
	  4   3  53  54        -0.0180805934
	  4   3  52  54        -0.0178247976
	  3   1   5  34         0.0164494181
	  4   1  29  34         0.0161553835
	  2   2   8   8        -0.0159164059
	  3   1  13  34        -0.0158954861
	  4   3  53  53        -0.0156560023
	  3   3  37  53        -0.0145628407

	Iterations converged.

	Overlap <L|e^T> =        0.94563493771

			**************************
			*                        *
			*        CCDENSITY       *
			*                        *
			**************************


	Input parameters:
	-----------------
	Wave function    =   CCSD
	Reference wfn    =   UHF
	Dertype          = 1
	Tolerance        = 1.0e-14
	Cache Level      = 2
	AO Basis         = No
	OPDM Only        = No
	Relax OPDM       = Yes
	Compute Xi       = No
	Use Zeta         = No
	Xi connected     = Yes
	Compute NO       = No

	Nuclear Rep. energy (wfn)     =    4.376203202420858
	SCF energy          (wfn)     =  -75.421720680244633
	Reference energy    (file100) =  -75.421720680244619
	CCSD energy         (CC_INFO) =   -0.231369482885161
	Total CCSD energy   (CC_INFO) =  -75.653090163129775
	Number of States = 1

	Ground?  State     EOM Energy       R0
	  Yes     0 A1    0.0000000000   1.00000000
  Cartesian Displacement SALCs
  By SALC:
  Number of SALCs: 2, nirreps: A1
  Project out translations: False
  Project out rotations: False
	irrep = 0, ncomponent = 1
		0: atom 0, direction z, coef 1.000000
	irrep = 0, ncomponent = 1
		0: atom 1, direction z, coef 1.000000

  By Atomic Center:
  Number of atomic centers: 2
   Atomic Center 0:
	x component, size = 0
	y component, size = 0
	z component, size = 1
		0: salc 0, irrep 0, coef 1.000000
   Atomic Center 1:
	x component, size = 0
	y component, size = 0
	z component, size = 1
		0: salc 1, irrep 0, coef 1.000000

    Molecular point group: c2v
    Full point group: C_inf_v

    Geometry (in Bohr), charge = 0, multiplicity = 2:

       Center              X                  Y                   Z       
    ------------   -----------------  -----------------  -----------------
         O            0.000000000000     0.000000000000    -0.108357441882
         H            0.000000000000     0.000000000000     1.719711235453

	Presorting MO-basis TPDMs.
	Sorting File: MO TPDM (AA|AA) nbuckets = 1
	Sorting File: MO TPDM (AA|aa) nbuckets = 1
	Sorting File: MO TPDM (aa|aa) nbuckets = 1
	Starting first half-transformation.
	Sorting half-transformed TPDMs.
	First half integral transformation complete.


  -Nuclear Repulsion Energy 1st Derivatives:
     Atom            X                  Y                   Z
    ------   -----------------  -----------------  -----------------
       1        0.000000000000     0.000000000000     2.393894308610
       2        0.000000000000     0.000000000000    -2.393894308610


  -Core Hamiltonian Gradient:
     Atom            X                  Y                   Z
    ------   -----------------  -----------------  -----------------
       1        0.000000000000     0.000000000000    -4.848850127123
       2        0.000000000000     0.000000000000     4.848850127123


  -Lagrangian contribution to gradient:
     Atom            X                  Y                   Z
    ------   -----------------  -----------------  -----------------
       1        0.000000000000     0.000000000000     0.264732974857
       2        0.000000000000     0.000000000000    -0.264732974857


  -Two-electron contribution to gradient:
     Atom            X                  Y                   Z
    ------   -----------------  -----------------  -----------------
       1        0.000000000000     0.000000000000     2.190223140217
       2        0.000000000000     0.000000000000    -2.190223140217


  -Total gradient:
     Atom            X                  Y                   Z
    ------   -----------------  -----------------  -----------------
       1        0.000000000000     0.000000000000     0.000000296561
       2        0.000000000000     0.000000000000    -0.000000296562


			-----------------------------------------
			 OPTKING 2.0: for geometry optimizations 
			  - R.A. King,  Bethel University        
			-----------------------------------------

	Previous internal coordinate definitions found.
	---Fragment 1 Geometry and Gradient---
	 O           0.0000000000        0.0000000000       -0.1083574419
	 H           0.0000000000        0.0000000000        1.7197112355
	             0.0000000000        0.0000000000        0.0000002966
	             0.0000000000        0.0000000000       -0.0000002966

	---Fragment 1 Intrafragment Coordinates---
	 - Coordinate -           - BOHR/RAD -       - ANG/DEG -
	 R(1,2)           =         1.828069	       0.967372

	Current energy   :       -75.6530901631

	Energy change for the previous step:
		Projected    :        -0.0000000000
		Actual       :        -0.0000000000

	Performing BFGS update.
	Previous computed or guess Hessian on step 1.
	Denominators (dg)(dq) or (dq)(dq) are very small.
	 Skipping Hessian update for step 4.
	Denominators (dg)(dq) or (dq)(dq) are very small.
	 Skipping Hessian update for step 3.
	Steps to be used in Hessian update: 2 1
	Taking RFO optimization step.
	Going to follow RFO solution 1.
	Using RFO vector 1.
	Norm of target step-size    0.00000
	Projected energy change by RFO approximation:        -0.0000000000

	Back-transformation to cartesian coordinates...
	Successfully converged to displaced geometry.

	--- Internal Coordinate Step in ANG or DEG, aJ/ANG or AJ/DEG ---
	 ---------------------------------------------------------------------------
	   Coordinate                Previous        Force       Change         New 
	   ----------                --------       ------       ------       ------
	    1 R(1,2)          =      0.967372     0.000002     0.000000     0.967373
	 ---------------------------------------------------------------------------
	Successfully symmetrized geometry.

  ==> Convergence Check <==

  Measures of convergence in internal coordinates in au.
  Criteria marked as inactive (o), active & met (*), and active & unmet ( ).
  ---------------------------------------------------------------------------------------------
   Step     Total Energy     Delta E     MAX Force     RMS Force      MAX Disp      RMS Disp   
  ---------------------------------------------------------------------------------------------
    Convergence Criteria             o    2.00e-06 *    1.00e-06 *    6.00e-06 *    4.00e-06 *
  ---------------------------------------------------------------------------------------------
      5     -75.65309016   -8.03e-12 o    2.97e-07 *    2.97e-07 *    5.39e-07 *    5.39e-07 *  ~
  ---------------------------------------------------------------------------------------------


  **** Optimization is complete! (in 5 steps) ****

  ==> Optimization Summary <==

  Measures of convergence in internal coordinates in au.
  --------------------------------------------------------------------------------------------------------------- ~
   Step         Total Energy             Delta E       MAX Force       RMS Force        MAX Disp        RMS Disp  ~
  --------------------------------------------------------------------------------------------------------------- ~
      1     -75.652725973283    -75.652725973283      0.02024627      0.02024627      0.03476941      0.03476941  ~
      2     -75.653089101502     -0.000363128219      0.00104727      0.00104727      0.00189660      0.00189660  ~
      3     -75.653090158564     -0.000001057062      0.00006856      0.00006856      0.00012458      0.00012458  ~
      4     -75.653090163122     -0.000000004558      0.00000451      0.00000451      0.00000819      0.00000819  ~
      5     -75.653090163130     -0.000000000008      0.00000030      0.00000030      0.00000054      0.00000054  ~
  --------------------------------------------------------------------------------------------------------------- ~

	Writing optimization data to binary file.
	Final energy is    -75.6530901631298
	Final (previous) structure:
	Cartesian Geometry (in Angstrom)
	    O     0.0000000000   0.0000000000  -0.0573402886
	    H     0.0000000000   0.0000000000   0.9100319912
	Saving final (previous) structure.
			--------------------------
			 OPTKING Finished Execution 
			--------------------------

    Final optimized geometry and variables:
    Molecular point group: c2v
    Full point group: C_inf_v

    Geometry (in Angstrom), charge = 0, multiplicity = 2:

    O       
    H             1          R1

    R1        =    0.9673722836

	Removing binary optimization data file.
	Cleaning optimization helper files.

    Psi4 stopped on: Tuesday, 23 February 2021 01:36PM
    Psi4 wall time for execution: 0:01:19.39

*** Psi4 exiting successfully. Buy a developer a beer!
