
    -----------------------------------------------------------------------
          Psi4: An Open-Source Ab Initio Electronic Structure Package
                               Psi4 1.3.2 release

                         Git: Rev {HEAD} ecbda83 


    R. M. Parrish, L. A. Burns, D. G. A. Smith, A. C. Simmonett,
    A. E. DePrince III, E. G. Hohenstein, U. Bozkaya, A. Yu. Sokolov,
    R. Di Remigio, R. M. Richard, J. F. Gonthier, A. M. James,
    H. R. McAlexander, A. Kumar, M. Saitow, X. Wang, B. P. Pritchard,
    P. Verma, H. F. Schaefer III, K. Patkowski, R. A. King, E. F. Valeev,
    F. A. Evangelista, J. M. Turney, T. D. Crawford, and C. D. Sherrill,
    J. Chem. Theory Comput. 13(7) pp 3185--3197 (2017).
    (doi: 10.1021/acs.jctc.7b00174)


                         Additional Contributions by
    P. Kraus, H. Kruse, M. H. Lechner, M. C. Schieber, R. A. Shaw,
    A. Alenaizan, R. Galvelis, Z. L. Glick, S. Lehtola, and J. P. Misiewicz

    -----------------------------------------------------------------------


    Psi4 started on: Wednesday, 10 March 2021 10:55AM

    Process ID: 78813
    Host:       c2-24.compute.lan
    PSIDATADIR: /apps/gb/PSI4/1.3.2/share/psi4
    Memory:     500.0 MiB
    Threads:    12
    
  ==> Input File <==

--------------------------------------------------------------------------
memory 4 GB

molecule  {
0 3
O    0.000000000000    0.000000000000    1.270653140196
H    0.000000000000   -0.757966072568    1.859123157722
H   -0.000000000000    0.757966072568    1.859123157722
O    0.000000000000    0.000000000000   -1.504936460978
}
set {
basis aug-cc-pvtz
reference uhf
e_convergence 10
scf_type pk
freeze_core true
}

set ccenergy {
e_convergence 10
r_convergence 10
}

e = energy('ccsd(t)')

print_out('Stephenergy {}'.format(e))

--------------------------------------------------------------------------

  Memory set to   3.725 GiB by Python driver.

*** tstart() called on c2-24.compute.lan
*** at Wed Mar 10 10:55:55 2021

   => Loading Basis Set <=

    Name: AUG-CC-PVTZ
    Role: ORBITAL
    Keyword: BASIS
    atoms 1, 4 entry O          line   327 file /apps/gb/PSI4/1.3.2/share/psi4/basis/aug-cc-pvtz.gbs 
    atoms 2-3  entry H          line    36 file /apps/gb/PSI4/1.3.2/share/psi4/basis/aug-cc-pvtz.gbs 


         ---------------------------------------------------------
                                   SCF
               by Justin Turney, Rob Parrish, Andy Simmonett
                          and Daniel G. A. Smith
                              UHF Reference
                       12 Threads,   3814 MiB Core
         ---------------------------------------------------------

  ==> Geometry <==

    Molecular point group: c2v
    Full point group: C2v

    Geometry (in Angstrom), charge = 0, multiplicity = 3:

       Center              X                  Y                   Z               Mass       
    ------------   -----------------  -----------------  -----------------  -----------------
         O            0.000000000000     0.000000000000     1.270653140196    15.994914619570
         H            0.000000000000    -0.757966072568     1.859123157722     1.007825032230
         H           -0.000000000000     0.757966072568     1.859123157722     1.007825032230
         O            0.000000000000     0.000000000000    -1.504936460978    15.994914619570

  Running in c2v symmetry.

  Rotational constants: A =     14.55733  B =      0.24425  C =      0.24022 [cm^-1]
  Rotational constants: A = 436417.87416  B =   7322.49413  C =   7201.66014 [MHz]
  Nuclear repulsion =   23.829636279804344

  Charge       = 0
  Multiplicity = 3
  Electrons    = 18
  Nalpha       = 10
  Nbeta        = 8

  ==> Algorithm <==

  SCF Algorithm Type is PK.
  DIIS enabled.
  MOM disabled.
  Fractional occupation disabled.
  Guess Type is SAD.
  Energy threshold   = 1.00e-10
  Density threshold  = 1.00e-08
  Integral threshold = 0.00e+00

  ==> Primary Basis <==

  Basis Set: AUG-CC-PVTZ
    Blend: AUG-CC-PVTZ
    Number of shells: 46
    Number of basis function: 138
    Number of Cartesian functions: 160
    Spherical Harmonics?: true
    Max angular momentum: 3

  ==> Pre-Iterations <==

   -------------------------------------------------------
    Irrep   Nso     Nmo     Nalpha   Nbeta   Ndocc  Nsocc
   -------------------------------------------------------
     A1        54      54       0       0       0       0
     A2        17      17       0       0       0       0
     B1        29      29       0       0       0       0
     B2        38      38       0       0       0       0
   -------------------------------------------------------
    Total     138     138      10       8       8       2
   -------------------------------------------------------

  ==> Integral Setup <==

  Using in-core PK algorithm.
   Calculation information:
      Number of atoms:                   4
      Number of AO shells:              46
      Number of primitives:             82
      Number of atomic orbitals:       160
      Number of basis functions:       138

      Integral cutoff                 1.00e-12
      Number of threads:                12

  Performing in-core PK
  Using 91996872 doubles for integral storage.
  We computed 909483 shell quartets total.
  Whereas there are 584821 unique shell quartets.
    55.51 percent of shell quartets recomputed by reordering.

  ==> DiskJK: Disk-Based J/K Matrices <==

    J tasked:                  Yes
    K tasked:                  Yes
    wK tasked:                  No
    Memory [MiB]:             2861
    Schwarz Cutoff:          1E-12

    OpenMP threads:             12

  Minimum eigenvalue in the overlap matrix is 3.2216181068E-04.
  Using Symmetric Orthogonalization.

  SCF Guess: Superposition of Atomic Densities via on-the-fly atomic UHF.

  ==> Iterations <==

                        Total Energy        Delta E     RMS |[F,P]|

   @UHF iter SAD:  -149.38376985002577   -1.49384e+02   0.00000e+00 
   @UHF iter   1:  -150.77014309069284   -1.38637e+00   6.70152e-03 DIIS
   @UHF iter   2:  -150.84093175070734   -7.07887e-02   4.25273e-03 DIIS
   @UHF iter   3:  -150.87214341536989   -3.12117e-02   5.57980e-04 DIIS
   @UHF iter   4:  -150.87351097736561   -1.36756e-03   1.70845e-04 DIIS
   @UHF iter   5:  -150.87364448659241   -1.33509e-04   6.97957e-05 DIIS
   @UHF iter   6:  -150.87367758223067   -3.30956e-05   2.08402e-05 DIIS
   @UHF iter   7:  -150.87368068227076   -3.10004e-06   5.34484e-06 DIIS
   @UHF iter   8:  -150.87368090560420   -2.23333e-07   1.48391e-06 DIIS
   @UHF iter   9:  -150.87368092231998   -1.67158e-08   3.64893e-07 DIIS
   @UHF iter  10:  -150.87368092338647   -1.06650e-09   1.74355e-07 DIIS
   @UHF iter  11:  -150.87368092371457   -3.28100e-10   6.81856e-08 DIIS
   @UHF iter  12:  -150.87368092376624   -5.16707e-11   1.46806e-08 DIIS
   @UHF iter  13:  -150.87368092376812   -1.87583e-12   4.40632e-09 DIIS
  Energy and wave function converged.


  ==> Post-Iterations <==

   @Spin Contamination Metric:   9.529749004E-03
   @S^2 Expected:                2.000000000E+00
   @S^2 Observed:                2.009529749E+00
   @S   Expected:                1.000000000E+00
   @S   Observed:                1.000000000E+00

    Orbital Energies [Eh]
    ---------------------

    Alpha Occupied:                                                       

       1A1   -20.684559     2A1   -20.570863     3A1    -1.393981  
       4A1    -1.356345     1B2    -0.719723     5A1    -0.688235  
       1B1    -0.685280     6A1    -0.586926     2B2    -0.586290  
       2B1    -0.514148  

    Alpha Virtual:                                                        

       7A1     0.029575     3B2     0.047685     8A1     0.118583  
       3B1     0.153979     9A1     0.159530     4B2     0.180367  
       5B2     0.186894     4B1     0.192707    10A1     0.198089  
       1A2     0.263748     6B2     0.264173    11A1     0.264789  
      12A1     0.314342     5B1     0.326749    13A1     0.376019  
       7B2     0.380434    14A1     0.450468     8B2     0.464718  
       9B2     0.599996     6B1     0.643502    15A1     0.647490  
       2A2     0.658156    16A1     0.666677    17A1     0.695900  
       3A2     0.721692    10B2     0.722561     7B1     0.767432  
      18A1     0.792751    19A1     0.818638     8B1     0.838079  
      20A1     0.861631     9B1     0.901160    11B2     0.918682  
       4A2     0.924992    12B2     0.946568    13B2     0.980034  
      21A1     0.989972    10B1     1.012390    22A1     1.046894  
      14B2     1.051980    11B1     1.122193     5A2     1.177276  
      23A1     1.192315    15B2     1.198621    16B2     1.326272  
      24A1     1.336396    25A1     1.442851     6A2     1.507909  
      12B1     1.595017    26A1     1.665840    27A1     1.811358  
      17B2     1.824239    18B2     1.979003    28A1     2.040777  
      13B1     2.047790    19B2     2.054039     7A2     2.056696  
      14B1     2.058938    29A1     2.079945    30A1     2.114912  
       8A2     2.118658    20B2     2.135211    31A1     2.141494  
      15B1     2.145316    32A1     2.252354    21B2     2.267105  
      16B1     2.303273     9A2     2.312324    17B1     2.434330  
      33A1     2.469741    22B2     2.481572    34A1     2.487168  
      35A1     2.695099    18B1     2.715486    23B2     2.719792  
      36A1     2.841180    24B2     2.861809    10A2     2.881235  
      25B2     3.693791    37A1     3.755681    11A2     4.015158  
      19B1     4.081427    20B1     4.099492    38A1     4.139961  
      26B2     4.183611    27B2     4.284168    21B1     4.289521  
      39A1     4.351473    12A2     4.382574    40A1     4.426487  
      22B1     4.453098    28B2     4.517332    41A1     4.791295  
      29B2     4.845724    30B2     5.145953    13A2     5.149355  
      31B2     5.251043    42A1     5.347864    23B1     5.522344  
      43A1     5.686418    44A1     6.201997    24B1     6.388956  
      45A1     6.408800    14A2     6.410095    32B2     6.423539  
      25B1     6.435479    33B2     6.485289    46A1     6.536755  
      34B2     6.581057    26B1     6.716595    27B1     6.902200  
      47A1     6.906156    15A2     6.924476    48A1     6.941666  
      35B2     6.985539    49A1     7.047149    28B1     7.136957  
      29B1     7.279819    16A2     7.310404    36B2     7.312629  
      17A2     7.353112    50A1     7.439472    51A1     7.547811  
      52A1     7.911271    37B2     7.922634    38B2     8.815427  
      53A1     8.859506    54A1    15.833732  

    Beta Occupied:                                                        

       1A1   -20.605694     2A1   -20.570403     3A1    -1.355667  
       4A1    -1.051172     1B2    -0.719396     5A1    -0.588663  
       1B1    -0.513491     2B2    -0.495710  

    Beta Virtual:                                                         

       6A1     0.029417     3B2     0.047766     2B1     0.086477  
       7A1     0.091918     8A1     0.140891     9A1     0.167099  
       3B1     0.170531     4B2     0.180991     5B2     0.190487  
      10A1     0.225651     4B1     0.253259     1A2     0.263751  
       6B2     0.264619    11A1     0.288394    12A1     0.316745  
       5B1     0.328054     7B2     0.380606    13A1     0.386337  
      14A1     0.451543     8B2     0.464912     9B2     0.601618  
      15A1     0.660773     6B1     0.667318     2A2     0.672583  
      16A1     0.673568    17A1     0.713178     3A2     0.722151  
      10B2     0.734777     7B1     0.778704    18A1     0.805965  
       8B1     0.847181    19A1     0.851497     4A2     0.925379  
      20A1     0.927894    11B2     0.936467    12B2     0.953637  
      13B2     0.983744     9B1     0.986468    21A1     0.997311  
      22A1     1.052932    14B2     1.053075    10B1     1.060386  
      11B1     1.138155     5A2     1.177473    23A1     1.193822  
      15B2     1.201323    16B2     1.328680    24A1     1.392979  
      25A1     1.482176     6A2     1.508324    12B1     1.596984  
      26A1     1.696097    27A1     1.816380    17B2     1.824579  
      18B2     1.980429    28A1     2.070504    13B1     2.070789  
      19B2     2.071455     7A2     2.081335    14B1     2.100499  
      29A1     2.100684    30A1     2.156196    20B2     2.180884  
       8A2     2.201882    31A1     2.207632    15B1     2.258338  
      32A1     2.309094     9A2     2.312455    21B2     2.318923  
      16B1     2.319121    17B1     2.442058    33A1     2.484355  
      22B2     2.484422    34A1     2.514054    35A1     2.702773  
      18B1     2.717197    23B2     2.720700    36A1     2.853091  
      24B2     2.861989    10A2     2.881269    25B2     3.694658  
      37A1     3.755816    11A2     4.015186    19B1     4.084001  
      38A1     4.172366    26B2     4.219784    20B1     4.259889  
      21B1     4.294015    27B2     4.294479    12A2     4.382680  
      39A1     4.425748    22B1     4.458187    40A1     4.467763  
      28B2     4.517407    41A1     4.801964    29B2     4.845879  
      30B2     5.146135    13A2     5.149429    31B2     5.251447  
      42A1     5.348519    23B1     5.522454    43A1     5.690919  
      44A1     6.203712    24B1     6.485592    14A2     6.486925  
      32B2     6.487723    45A1     6.492997    25B1     6.499310  
      33B2     6.520666    46A1     6.608622    34B2     6.609202  
      26B1     6.723356    47A1     6.957924    15A2     7.038029  
      48A1     7.041885    27B1     7.084833    35B2     7.097404  
      28B1     7.137346    49A1     7.174037    29B1     7.283906  
      16A2     7.310685    36B2     7.312813    17A2     7.353505  
      50A1     7.442261    51A1     7.548837    52A1     7.911828  
      37B2     7.922979    38B2     8.815795    53A1     8.938941  
      54A1    15.834047  

    Final Occupation by Irrep:
             A1    A2    B1    B2 
    DOCC [     5,    0,    1,    2 ]
    SOCC [     1,    0,    1,    0 ]

  @UHF Final Energy:  -150.87368092376812

   => Energetics <=

    Nuclear Repulsion Energy =             23.8296362798043440
    One-Electron Energy =                -255.7200891514127647
    Two-Electron Energy =                  81.0167719478402972
    Total Energy =                       -150.8736809237681200

  UHF NO Occupations:
  HONO-2 :    5 A1 1.9970493
  HONO-1 :    6 A1 1.0000000
  HONO-0 :    2 B1 1.0000000
  LUNO+0 :    7 A1 0.0029507
  LUNO+1 :    3 B2 0.0017948
  LUNO+2 :    8 A1 0.0000215
  LUNO+3 :    9 A1 0.0000024


Computation Completed


Properties will be evaluated at   0.000000,   0.000000,   0.000000 [a0]

Properties computed using the SCF density matrix

  Nuclear Dipole Moment: [e a0]
     X:     0.0000      Y:     0.0000      Z:     3.4846

  Electronic Dipole Moment: [e a0]
     X:     0.0000      Y:     0.0000      Z:    -2.6486

  Dipole Moment: [e a0]
     X:     0.0000      Y:     0.0000      Z:     0.8360     Total:     0.8360

  Dipole Moment: [D]
     X:     0.0000      Y:     0.0000      Z:     2.1248     Total:     2.1248


*** tstop() called on c2-24.compute.lan at Wed Mar 10 10:56:01 2021
Module time:
	user time   =      45.73 seconds =       0.76 minutes
	system time =       2.31 seconds =       0.04 minutes
	total time  =          6 seconds =       0.10 minutes
Total time:
	user time   =      45.73 seconds =       0.76 minutes
	system time =       2.31 seconds =       0.04 minutes
	total time  =          6 seconds =       0.10 minutes
 MINTS: Wrapper to libmints.
   by Justin Turney

   Calculation information:
      Number of threads:                12
      Number of atoms:                   4
      Number of AO shells:              46
      Number of SO shells:              37
      Number of primitives:             82
      Number of atomic orbitals:       160
      Number of basis functions:       138

      Number of irreps:                  4
      Integral cutoff                 0.00e+00
      Number of functions per irrep: [  54   17   29   38 ]

 OEINTS: Overlap, kinetic, potential, dipole, and quadrupole integrals
         stored in file 35.

      Computing two-electron integrals...done
      Computed 11332617 non-zero two-electron integrals.
        Stored in file 33.


*** tstart() called on c2-24.compute.lan
*** at Wed Mar 10 10:56:06 2021


	Wfn Parameters:
	--------------------
	Wavefunction         = CCSD_T
	Number of irreps     = 4
	Number of MOs        = 138
	Number of active MOs = 136
	AO-Basis             = NONE
	Semicanonical        = false
	Reference            = UHF
	Print Level          = 1

	IRREP	# MOs	# FZDC	# DOCC	# SOCC	# VIRT	# FZVR
	-----	-----	------	------	------	------	------
	 A1	   54	    2	    3	    1	    48	    0
	 A2	   17	    0	    0	    0	    17	    0
	 B1	   29	    0	    1	    1	    27	    0
	 B2	   38	    0	    2	    0	    36	    0
	Transforming integrals...
	IWL integrals will be deleted.
	(OO|OO)...
	Presorting SO-basis two-electron integrals.
	Sorting File: SO Ints (nn|nn) nbuckets = 1
	Transforming the one-electron integrals and constructing Fock matrices
	Starting AA/AB first half-transformation.
	Sorting AA/AB half-transformed integrals.
	Starting BB first half-transformation.
	Sorting BB half-transformed integrals.
	First half integral transformation complete.
	Starting AA second half-transformation.
	Starting AB second half-transformation.
	Starting BB second half-transformation.
	Two-electron integral transformation complete.
	(OO|OV)...
	Starting AA second half-transformation.
	Starting AB second half-transformation.
	Starting BB second half-transformation.
	Two-electron integral transformation complete.
	(OO|VV)...
	Starting AA second half-transformation.
	Starting AB second half-transformation.
	Starting BB second half-transformation.
	Two-electron integral transformation complete.
	(OV|OO)...
	Starting AA/AB first half-transformation.
	Sorting AA/AB half-transformed integrals.
	Starting BB first half-transformation.
	Sorting BB half-transformed integrals.
	First half integral transformation complete.
	Starting AA second half-transformation.
	Starting AB second half-transformation.
	Starting BB second half-transformation.
	Two-electron integral transformation complete.
	(OV|OV)...
	Starting AA second half-transformation.
	Starting AB second half-transformation.
	Starting BB second half-transformation.
	Two-electron integral transformation complete.
	(OV|VV)...
	Starting AA second half-transformation.
	Starting AB second half-transformation.
	Starting BB second half-transformation.
	Two-electron integral transformation complete.
	(VV|OO)...
	Starting AA/AB first half-transformation.
	Sorting AA/AB half-transformed integrals.
	Starting BB first half-transformation.
	Sorting BB half-transformed integrals.
	First half integral transformation complete.
	Starting AA second half-transformation.
	Starting AB second half-transformation.
	Starting BB second half-transformation.
	Two-electron integral transformation complete.
	(VV|OV)...
	Starting AA second half-transformation.
	Starting AB second half-transformation.
	Starting BB second half-transformation.
	Two-electron integral transformation complete.
	(VV|VV)...
	Starting AA second half-transformation.
	Starting AB second half-transformation.
	Starting BB second half-transformation.
	Two-electron integral transformation complete.
	Frozen core energy     =   -126.36874950184479

	Size of irrep 0 of <AB|CD> integrals:      5.040 (MW) /     40.320 (MB)
	Size of irrep 1 of <AB|CD> integrals:      3.197 (MW) /     25.576 (MB)
	Size of irrep 2 of <AB|CD> integrals:      3.640 (MW) /     29.124 (MB)
	Size of irrep 3 of <AB|CD> integrals:      4.783 (MW) /     38.264 (MB)
	Total:                                    16.660 (MW) /    133.283 (MB)

	Size of irrep 0 of <ab|cd> integrals:      5.382 (MW) /     43.059 (MB)
	Size of irrep 1 of <ab|cd> integrals:      3.389 (MW) /     27.114 (MB)
	Size of irrep 2 of <ab|cd> integrals:      3.936 (MW) /     31.490 (MB)
	Size of irrep 3 of <ab|cd> integrals:      5.018 (MW) /     40.141 (MB)
	Total:                                    17.726 (MW) /    141.804 (MB)

	Size of irrep 0 of <Ab|Cd> integrals:     22.024 (MW) /    176.194 (MB)
	Size of irrep 1 of <Ab|Cd> integrals:     13.170 (MW) /    105.357 (MB)
	Size of irrep 2 of <Ab|Cd> integrals:     15.140 (MW) /    121.119 (MB)
	Size of irrep 3 of <Ab|Cd> integrals:     19.598 (MW) /    156.787 (MB)
	Total:                                    69.932 (MW) /    559.457 (MB)

	Size of irrep 0 of <IA|BC> integrals:      1.469 (MW) /     11.748 (MB)
	Size of irrep 1 of <IA|BC> integrals:      0.694 (MW) /      5.550 (MB)
	Size of irrep 2 of <IA|BC> integrals:      0.908 (MW) /      7.266 (MB)
	Size of irrep 3 of <IA|BC> integrals:      1.198 (MW) /      9.588 (MB)
	Total:                                     4.269 (MW) /     34.152 (MB)

	Size of irrep 0 of <ia|bc> integrals:      1.178 (MW) /      9.426 (MB)
	Size of irrep 1 of <ia|bc> integrals:      0.527 (MW) /      4.212 (MB)
	Size of irrep 2 of <ia|bc> integrals:      0.663 (MW) /      5.301 (MB)
	Size of irrep 3 of <ia|bc> integrals:      0.999 (MW) /      7.992 (MB)
	Total:                                     3.366 (MW) /     26.931 (MB)

	Size of irrep 0 of <Ia|Bc> integrals:      1.521 (MW) /     12.164 (MB)
	Size of irrep 1 of <Ia|Bc> integrals:      0.711 (MW) /      5.690 (MB)
	Size of irrep 2 of <Ia|Bc> integrals:      0.949 (MW) /      7.595 (MB)
	Size of irrep 3 of <Ia|Bc> integrals:      1.222 (MW) /      9.775 (MB)
	Total:                                     4.403 (MW) /     35.225 (MB)

	Size of irrep 0 of <iA|bC> integrals:      1.140 (MW) /      9.123 (MB)
	Size of irrep 1 of <iA|bC> integrals:      0.512 (MW) /      4.094 (MB)
	Size of irrep 2 of <iA|bC> integrals:      0.634 (MW) /      5.074 (MB)
	Size of irrep 3 of <iA|bC> integrals:      0.978 (MW) /      7.827 (MB)
	Total:                                     3.265 (MW) /     26.118 (MB)

	Size of irrep 0 of tIjAb amplitudes:       0.084 (MW) /      0.676 (MB)
	Size of irrep 1 of tIjAb amplitudes:       0.022 (MW) /      0.174 (MB)
	Size of irrep 2 of tIjAb amplitudes:       0.039 (MW) /      0.311 (MB)
	Size of irrep 3 of tIjAb amplitudes:       0.062 (MW) /      0.496 (MB)
	Total:                                     0.207 (MW) /      1.657 (MB)

	Nuclear Rep. energy          =     23.82963627980434
	SCF energy                   =   -150.87368092376812
	One-electron energy          =    -85.41411005789462
	Two-electron (AA) energy     =     10.36255764676057
	Two-electron (BB) energy     =      5.46715402530443
	Two-electron (AB) energy     =     21.24983068410086
	Two-electron energy          =     37.07954235616586
	Reference energy             =   -150.87368092376920

*** tstop() called on c2-24.compute.lan at Wed Mar 10 10:57:22 2021
Module time:
	user time   =     569.10 seconds =       9.48 minutes
	system time =      36.88 seconds =       0.61 minutes
	total time  =         76 seconds =       1.27 minutes
Total time:
	user time   =     620.50 seconds =      10.34 minutes
	system time =      39.78 seconds =       0.66 minutes
	total time  =         87 seconds =       1.45 minutes
            **************************
            *                        *
            *        CCENERGY        *
            *                        *
            **************************

    Nuclear Rep. energy (wfn)     =   23.829636279804344
    SCF energy          (wfn)     = -150.873680923768120
    Reference energy    (file100) = -150.873680923769200

    Input parameters:
    -----------------
    Wave function   =     CCSD_T
    Reference wfn   =     UHF
    Brueckner       =     No
    Memory (Mbytes) =     4000.0
    Maxiter         =     50
    R_Convergence   =     1.0e-10
    E_Convergence   =     1.0e-10
    Restart         =     Yes
    DIIS            =     Yes
    AO Basis        =     NONE
    ABCD            =     NEW
    Cache Level     =     2
    Cache Type      =     LRU
    Print Level     =     1
    Num. of threads =     12
    # Amps to Print =     10
    Print MP2 Amps? =     No
    Analyze T2 Amps =     No
    Print Pair Ener =     No
    Local CC        =     No
    SCS-MP2         =     False
    SCSN-MP2        =     False
    SCS-CCSD        =     False

MP2 correlation energy -0.4161120226754425
                Solving CC Amplitude Equations
                ------------------------------
  Iter             Energy              RMS        T1Diag      D1Diag    New D1Diag    D2Diag
  ----     ---------------------    ---------   ----------  ----------  ----------   --------
     0        -0.416112022675442    0.000e+00    0.000000    0.000000    0.000000    0.000000
     1        -0.426938941197746    5.685e-02    0.010554    0.000000    0.000000    0.000000
     2        -0.435016369332797    1.698e-02    0.011051    0.000000    0.000000    0.000000
     3        -0.437158963203746    8.746e-03    0.012966    0.000000    0.000000    0.000000
     4        -0.437032628860977    2.675e-03    0.013373    0.000000    0.000000    0.000000
     5        -0.437023190610881    1.391e-03    0.013565    0.000000    0.000000    0.000000
     6        -0.437052283226358    5.284e-04    0.013591    0.000000    0.000000    0.000000
     7        -0.437055250487972    2.138e-04    0.013585    0.000000    0.000000    0.000000
     8        -0.437056180203384    6.658e-05    0.013580    0.000000    0.000000    0.000000
     9        -0.437056862396866    2.377e-05    0.013580    0.000000    0.000000    0.000000
    10        -0.437055966865112    9.195e-06    0.013579    0.000000    0.000000    0.000000
    11        -0.437056131476104    3.986e-06    0.013579    0.000000    0.000000    0.000000
    12        -0.437056092189508    1.440e-06    0.013579    0.000000    0.000000    0.000000
    13        -0.437056100001090    7.270e-07    0.013579    0.000000    0.000000    0.000000
    14        -0.437056122510992    3.026e-07    0.013579    0.000000    0.000000    0.000000
    15        -0.437056124267232    1.101e-07    0.013579    0.000000    0.000000    0.000000
    16        -0.437056124843354    4.911e-08    0.013579    0.000000    0.000000    0.000000
    17        -0.437056125423683    1.892e-08    0.013579    0.000000    0.000000    0.000000
    18        -0.437056125285528    9.776e-09    0.013579    0.000000    0.000000    0.000000
    19        -0.437056125082256    3.870e-09    0.013579    0.000000    0.000000    0.000000
    20        -0.437056125071992    2.094e-09    0.013579    0.000000    0.000000    0.000000
    21        -0.437056125049144    8.011e-10    0.013579    0.000000    0.000000    0.000000
    22        -0.437056125047574    3.230e-10    0.013579    0.000000    0.000000    0.000000
    23        -0.437056125046616    1.676e-10    0.013579    0.000000    0.000000    0.000000
    24        -0.437056125046463    6.872e-11    0.013579    0.000000    0.000000    0.000000

    Iterations converged.


    Largest TIA Amplitudes:
              5  65        -0.0132819416
              5  67        -0.0111507102
              7  94         0.0103674810
              5  66        -0.0096654500
              4  65        -0.0074542699
              3   1         0.0073904432
              2   3         0.0072202679
              4  66         0.0071686292
              3   5        -0.0055726649
              3   6         0.0053953534

    Largest Tia Amplitudes:
              3  67        -0.0147669980
              2   2         0.0133946040
              3  69        -0.0107654438
              5  96         0.0079635655
              3  66        -0.0076354657
              2   1        -0.0068067765
              2   7         0.0056090274
              2   6        -0.0055520111
              1  25        -0.0054382311
              4 109         0.0053647612

    Largest TIJAB Amplitudes:
      7   4 100  71         0.0142770641
      7   4  55  23        -0.0135840172
      7   2 100  12        -0.0122129121
      4   2  71  12         0.0110957566
      6   5  50   9        -0.0086692472
      7   4  49  23         0.0082498916
      6   5  97  72        -0.0080442259
      7   4  94  71         0.0078476219
      7   4  55   8        -0.0076372257
      7   4 100  82        -0.0072777885

    Largest Tijab Amplitudes:
      5   1  66  56         0.0086753950
      5   1  66  50        -0.0085749317
      5   1  68  56         0.0081613005
      4   3  99  67        -0.0076272868
      5   1  68  50        -0.0074594958
      4   3  99  73        -0.0073015439
      4   2  99   2         0.0071546588
      4   2  99  12         0.0068576405
      4   2 100   9        -0.0066978486
      4   3  51  10        -0.0065998469

    Largest TIjAb Amplitudes:
      7   5 100 103        -0.0218554089
      6   4  97  99        -0.0216886668
      7   5 100 102         0.0189425903
      7   1  55  66        -0.0180649589
      7   5 100  96        -0.0170811093
      7   1  55  68        -0.0168461907
      4   1  23  66        -0.0166870491
      5   3  72  73        -0.0161852276
      4   1  23  68        -0.0155203644
      4   1   8  66        -0.0145838233

    SCF energy       (wfn)                    = -150.873680923768120
    Reference energy (file100)                = -150.873680923769200

    Opposite-spin MP2 correlation energy      =   -0.314308603246099
    Same-spin MP2 correlation energy          =   -0.101803419429344
    MP2 correlation energy                    =   -0.416112022675442
      * MP2 total energy                      = -151.289792946444635

    Opposite-spin CCSD correlation energy     =   -0.341959043241659
    Same-spin CCSD correlation energy         =   -0.095097081804804
    CCSD correlation energy                   =   -0.437056125046463
      * CCSD total energy                     = -151.310737048815668

            **************************
            *                        *
            *        CCTRIPLES       *
            *                        *
            **************************


    Wave function   =    CCSD_T
    Reference wfn   =      UHF

    Nuclear Rep. energy (wfn)                =   23.829636279804344
    SCF energy          (wfn)                = -150.873680923768120
    Reference energy    (file100)            = -150.873680923769200
    CCSD energy         (file100)            =   -0.437056125046463
    Total CCSD energy   (file100)            = -151.310737048815668

    Number of ijk index combinations:
    Spin Case AAA:                                  56
    Spin Case BBB:                                  20
    Spin Case AAB:                                 168
    Spin Case ABB:                                 120
    AAA (T) energy                             =   -0.000395418677328
    BBB (T) energy                             =   -0.000201833756948
    AAB (T) energy                             =   -0.006699869683637
    ABB (T) energy                             =   -0.004975056905911
    (T) energy                                   =   -0.012272179023825
      * CCSD(T) total energy                     = -151.323009227839492

Stephenergy -151.3230092278395
    Psi4 stopped on: Wednesday, 10 March 2021 10:58AM
    Psi4 wall time for execution: 0:02:43.01

*** Psi4 exiting successfully. Buy a developer a beer!
