
    -----------------------------------------------------------------------
          Psi4: An Open-Source Ab Initio Electronic Structure Package
                               Psi4 1.3.2 release

                         Git: Rev {HEAD} ecbda83 


    R. M. Parrish, L. A. Burns, D. G. A. Smith, A. C. Simmonett,
    A. E. DePrince III, E. G. Hohenstein, U. Bozkaya, A. Yu. Sokolov,
    R. Di Remigio, R. M. Richard, J. F. Gonthier, A. M. James,
    H. R. McAlexander, A. Kumar, M. Saitow, X. Wang, B. P. Pritchard,
    P. Verma, H. F. Schaefer III, K. Patkowski, R. A. King, E. F. Valeev,
    F. A. Evangelista, J. M. Turney, T. D. Crawford, and C. D. Sherrill,
    J. Chem. Theory Comput. 13(7) pp 3185--3197 (2017).
    (doi: 10.1021/acs.jctc.7b00174)


                         Additional Contributions by
    P. Kraus, H. Kruse, M. H. Lechner, M. C. Schieber, R. A. Shaw,
    A. Alenaizan, R. Galvelis, Z. L. Glick, S. Lehtola, and J. P. Misiewicz

    -----------------------------------------------------------------------


    Psi4 started on: Monday, 08 March 2021 05:39PM

    Process ID: 129347
    Host:       c2-24.compute.lan
    PSIDATADIR: /apps/gb/PSI4/1.3.2/share/psi4
    Memory:     500.0 MiB
    Threads:    12
    
  ==> Input File <==

--------------------------------------------------------------------------
memory 4 GB

molecule  {
0 3
O    0.000000000000    0.000000000000    1.269619583388
H    0.000000000000   -0.759829563800    1.859885300662
H   -0.000000000000    0.759829563800    1.859885300662
O    0.000000000000    0.000000000000   -1.503998948038
}
set {
basis aug-cc-pvtz
reference uhf
e_convergence 10
scf_type pk
freeze_core true
}

set ccenergy {
e_convergence 10
r_convergence 10
}

e = energy('ccsd(t)')

print_out('Stephenergy {}'.format(e))

--------------------------------------------------------------------------

  Memory set to   3.725 GiB by Python driver.

*** tstart() called on c2-24.compute.lan
*** at Mon Mar  8 17:39:45 2021

   => Loading Basis Set <=

    Name: AUG-CC-PVTZ
    Role: ORBITAL
    Keyword: BASIS
    atoms 1, 4 entry O          line   327 file /apps/gb/PSI4/1.3.2/share/psi4/basis/aug-cc-pvtz.gbs 
    atoms 2-3  entry H          line    36 file /apps/gb/PSI4/1.3.2/share/psi4/basis/aug-cc-pvtz.gbs 


         ---------------------------------------------------------
                                   SCF
               by Justin Turney, Rob Parrish, Andy Simmonett
                          and Daniel G. A. Smith
                              UHF Reference
                       12 Threads,   3814 MiB Core
         ---------------------------------------------------------

  ==> Geometry <==

    Molecular point group: c2v
    Full point group: C2v

    Geometry (in Angstrom), charge = 0, multiplicity = 3:

       Center              X                  Y                   Z               Mass       
    ------------   -----------------  -----------------  -----------------  -----------------
         O            0.000000000000     0.000000000000     1.269619583388    15.994914619570
         H            0.000000000000    -0.759829563800     1.859885300662     1.007825032230
         H           -0.000000000000     0.759829563800     1.859885300662     1.007825032230
         O            0.000000000000     0.000000000000    -1.503998948038    15.994914619570

  Running in c2v symmetry.

  Rotational constants: A =     14.48602  B =      0.24454  C =      0.24048 [cm^-1]
  Rotational constants: A = 434279.85886  B =   7331.14080  C =   7209.43725 [MHz]
  Nuclear repulsion =   23.813683917108648

  Charge       = 0
  Multiplicity = 3
  Electrons    = 18
  Nalpha       = 10
  Nbeta        = 8

  ==> Algorithm <==

  SCF Algorithm Type is PK.
  DIIS enabled.
  MOM disabled.
  Fractional occupation disabled.
  Guess Type is SAD.
  Energy threshold   = 1.00e-10
  Density threshold  = 1.00e-08
  Integral threshold = 0.00e+00

  ==> Primary Basis <==

  Basis Set: AUG-CC-PVTZ
    Blend: AUG-CC-PVTZ
    Number of shells: 46
    Number of basis function: 138
    Number of Cartesian functions: 160
    Spherical Harmonics?: true
    Max angular momentum: 3

  ==> Pre-Iterations <==

   -------------------------------------------------------
    Irrep   Nso     Nmo     Nalpha   Nbeta   Ndocc  Nsocc
   -------------------------------------------------------
     A1        54      54       0       0       0       0
     A2        17      17       0       0       0       0
     B1        29      29       0       0       0       0
     B2        38      38       0       0       0       0
   -------------------------------------------------------
    Total     138     138      10       8       8       2
   -------------------------------------------------------

  ==> Integral Setup <==

  Using in-core PK algorithm.
   Calculation information:
      Number of atoms:                   4
      Number of AO shells:              46
      Number of primitives:             82
      Number of atomic orbitals:       160
      Number of basis functions:       138

      Integral cutoff                 1.00e-12
      Number of threads:                12

  Performing in-core PK
  Using 91996872 doubles for integral storage.
  We computed 909612 shell quartets total.
  Whereas there are 584821 unique shell quartets.
    55.54 percent of shell quartets recomputed by reordering.

  ==> DiskJK: Disk-Based J/K Matrices <==

    J tasked:                  Yes
    K tasked:                  Yes
    wK tasked:                  No
    Memory [MiB]:             2861
    Schwarz Cutoff:          1E-12

    OpenMP threads:             12

  Minimum eigenvalue in the overlap matrix is 3.2412940051E-04.
  Using Symmetric Orthogonalization.

  SCF Guess: Superposition of Atomic Densities via on-the-fly atomic UHF.

  ==> Iterations <==

                        Total Energy        Delta E     RMS |[F,P]|

   @UHF iter SAD:  -149.38088178981360   -1.49381e+02   0.00000e+00 
   @UHF iter   1:  -150.76980029234559   -1.38892e+00   6.69660e-03 DIIS
   @UHF iter   2:  -150.84055823585692   -7.07579e-02   4.26028e-03 DIIS
   @UHF iter   3:  -150.87192330497646   -3.13651e-02   5.59182e-04 DIIS
   @UHF iter   4:  -150.87329974689234   -1.37644e-03   1.71183e-04 DIIS
   @UHF iter   5:  -150.87343406191229   -1.34315e-04   6.98379e-05 DIIS
   @UHF iter   6:  -150.87346720320420   -3.31413e-05   2.08681e-05 DIIS
   @UHF iter   7:  -150.87347030848673   -3.10528e-06   5.36801e-06 DIIS
   @UHF iter   8:  -150.87347053384224   -2.25356e-07   1.49554e-06 DIIS
   @UHF iter   9:  -150.87347055090066   -1.70584e-08   3.72570e-07 DIIS
   @UHF iter  10:  -150.87347055202383   -1.12317e-09   1.79510e-07 DIIS
   @UHF iter  11:  -150.87347055237601   -3.52173e-10   6.98908e-08 DIIS
   @UHF iter  12:  -150.87347055243103   -5.50244e-11   1.49855e-08 DIIS
   @UHF iter  13:  -150.87347055243288   -1.84741e-12   4.48677e-09 DIIS
  Energy and wave function converged.


  ==> Post-Iterations <==

   @Spin Contamination Metric:   9.530946427E-03
   @S^2 Expected:                2.000000000E+00
   @S^2 Observed:                2.009530946E+00
   @S   Expected:                1.000000000E+00
   @S   Observed:                1.000000000E+00

    Orbital Energies [Eh]
    ---------------------

    Alpha Occupied:                                                       

       1A1   -20.684504     2A1   -20.571333     3A1    -1.393926  
       4A1    -1.355060     1B2    -0.718260     5A1    -0.688190  
       1B1    -0.685228     6A1    -0.586495     2B2    -0.586237  
       2B1    -0.513951  

    Alpha Virtual:                                                        

       7A1     0.029539     3B2     0.047673     8A1     0.118595  
       3B1     0.154088     9A1     0.159435     4B2     0.180282  
       5B2     0.186945     4B1     0.192769    10A1     0.198029  
       1A2     0.263737     6B2     0.263987    11A1     0.264800  
      12A1     0.314334     5B1     0.326613    13A1     0.376018  
       7B2     0.380367    14A1     0.449897     8B2     0.464226  
       9B2     0.599935     6B1     0.643707    15A1     0.647471  
       2A2     0.658156    16A1     0.666485    17A1     0.696308  
       3A2     0.721791    10B2     0.722528     7B1     0.767510  
      18A1     0.792642    19A1     0.818551     8B1     0.837817  
      20A1     0.860979     9B1     0.901209    11B2     0.918557  
       4A2     0.924692    12B2     0.946281    13B2     0.979701  
      21A1     0.989550    10B1     1.012732    22A1     1.046193  
      14B2     1.051240    11B1     1.121817     5A2     1.176674  
      23A1     1.191543    15B2     1.198854    16B2     1.327001  
      24A1     1.336698    25A1     1.443374     6A2     1.507031  
      12B1     1.593551    26A1     1.666339    27A1     1.812840  
      17B2     1.822319    18B2     1.975883    28A1     2.040759  
      13B1     2.047780    19B2     2.054068     7A2     2.056828  
      14B1     2.058919    29A1     2.079091    30A1     2.114919  
       8A2     2.118729    20B2     2.135256    31A1     2.139873  
      15B1     2.145334    32A1     2.252191    21B2     2.267376  
      16B1     2.303351     9A2     2.311663    17B1     2.434157  
      33A1     2.470409    22B2     2.482647    34A1     2.486281  
      35A1     2.695500    18B1     2.715981    23B2     2.720780  
      36A1     2.840203    24B2     2.861381    10A2     2.879813  
      25B2     3.689929    37A1     3.751759    11A2     4.013077  
      19B1     4.078758    20B1     4.099208    38A1     4.139034  
      26B2     4.183205    27B2     4.280728    21B1     4.288088  
      39A1     4.350921    12A2     4.381352    40A1     4.426725  
      22B1     4.450742    28B2     4.515263    41A1     4.788429  
      29B2     4.838475    30B2     5.141151    13A2     5.142335  
      31B2     5.245940    42A1     5.337374    23B1     5.514515  
      43A1     5.681940    44A1     6.198436    24B1     6.388980  
      45A1     6.408914    14A2     6.410181    32B2     6.423612  
      25B1     6.435515    33B2     6.485662    46A1     6.535822  
      34B2     6.581766    26B1     6.716079    27B1     6.902345  
      47A1     6.905638    15A2     6.924535    48A1     6.939867  
      35B2     6.985712    49A1     7.046671    28B1     7.133993  
      29B1     7.277655    16A2     7.304862    36B2     7.305716  
      17A2     7.351908    50A1     7.438235    51A1     7.540326  
      52A1     7.906621    37B2     7.914169    38B2     8.802120  
      53A1     8.861155    54A1    15.752214  

    Beta Occupied:                                                        

       1A1   -20.605638     2A1   -20.570870     3A1    -1.354372  
       4A1    -1.051120     1B2    -0.717930     5A1    -0.588237  
       1B1    -0.513290     2B2    -0.495656  

    Beta Virtual:                                                         

       6A1     0.029378     3B2     0.047754     2B1     0.086525  
       7A1     0.091931     8A1     0.140956     9A1     0.167029  
       3B1     0.170670     4B2     0.180917     5B2     0.190528  
      10A1     0.225534     4B1     0.253291     1A2     0.263740  
       6B2     0.264435    11A1     0.288412    12A1     0.316707  
       5B1     0.327917     7B2     0.380540    13A1     0.386398  
      14A1     0.450990     8B2     0.464421     9B2     0.601550  
      15A1     0.660475     6B1     0.667539     2A2     0.672573  
      16A1     0.673604    17A1     0.713554     3A2     0.722260  
      10B2     0.734738     7B1     0.778778    18A1     0.805971  
       8B1     0.846926    19A1     0.850586     4A2     0.925079  
      20A1     0.928120    11B2     0.936331    12B2     0.953308  
      13B2     0.983438     9B1     0.986647    21A1     0.996689  
      22A1     1.052356    14B2     1.052359    10B1     1.060471  
      11B1     1.137889     5A2     1.176871    23A1     1.193031  
      15B2     1.201589    16B2     1.329394    24A1     1.393351  
      25A1     1.482645     6A2     1.507449    12B1     1.595522  
      26A1     1.696577    27A1     1.817869    17B2     1.822655  
      18B2     1.977260    28A1     2.070244    13B1     2.070835  
      19B2     2.071495     7A2     2.081469    29A1     2.099301  
      14B1     2.100314    30A1     2.155216    20B2     2.181009  
       8A2     2.201946    31A1     2.207703    15B1     2.258385  
      32A1     2.309059     9A2     2.311797    21B2     2.319128  
      16B1     2.319173    17B1     2.442004    33A1     2.483065  
      22B2     2.485537    34A1     2.515209    35A1     2.702789  
      18B1     2.717686    23B2     2.721680    36A1     2.852398  
      24B2     2.861564    10A2     2.879847    25B2     3.690796  
      37A1     3.751891    11A2     4.013106    19B1     4.081028  
      38A1     4.170966    26B2     4.218584    20B1     4.259311  
      27B2     4.291831    21B1     4.293118    12A2     4.381458  
      39A1     4.425609    22B1     4.455893    40A1     4.467868  
      28B2     4.515339    41A1     4.799241    29B2     4.838631  
      30B2     5.141328    13A2     5.142410    31B2     5.246348  
      42A1     5.338025    23B1     5.514626    43A1     5.686445  
      44A1     6.200079    24B1     6.485619    14A2     6.487011  
      32B2     6.487777    45A1     6.493120    25B1     6.499216  
      33B2     6.521148    46A1     6.607461    34B2     6.609826  
      26B1     6.722981    47A1     6.955431    15A2     7.038086  
      48A1     7.041943    27B1     7.084882    35B2     7.097570  
      28B1     7.134405    49A1     7.173992    29B1     7.281804  
      16A2     7.305125    36B2     7.305901    17A2     7.352324  
      50A1     7.440983    51A1     7.541414    52A1     7.907186  
      37B2     7.914518    38B2     8.802490    53A1     8.940566  
      54A1    15.752532  

    Final Occupation by Irrep:
             A1    A2    B1    B2 
    DOCC [     5,    0,    1,    2 ]
    SOCC [     1,    0,    1,    0 ]

  @UHF Final Energy:  -150.87347055243288

   => Energetics <=

    Nuclear Repulsion Energy =             23.8136839171086478
    One-Electron Energy =                -255.6940124120710323
    Two-Electron Energy =                  81.0068579425295070
    Total Energy =                       -150.8734705524328774

  UHF NO Occupations:
  HONO-2 :    5 A1 1.9970493
  HONO-1 :    2 B1 1.0000000
  HONO-0 :    6 A1 1.0000000
  LUNO+0 :    7 A1 0.0029507
  LUNO+1 :    3 B2 0.0017950
  LUNO+2 :    8 A1 0.0000217
  LUNO+3 :    9 A1 0.0000024


Computation Completed


Properties will be evaluated at   0.000000,   0.000000,   0.000000 [a0]

Properties computed using the SCF density matrix

  Nuclear Dipole Moment: [e a0]
     X:     0.0000      Y:     0.0000      Z:     3.4860

  Electronic Dipole Moment: [e a0]
     X:     0.0000      Y:     0.0000      Z:    -2.6489

  Dipole Moment: [e a0]
     X:     0.0000      Y:     0.0000      Z:     0.8372     Total:     0.8372

  Dipole Moment: [D]
     X:     0.0000      Y:     0.0000      Z:     2.1279     Total:     2.1279


*** tstop() called on c2-24.compute.lan at Mon Mar  8 17:39:49 2021
Module time:
	user time   =      39.34 seconds =       0.66 minutes
	system time =       1.66 seconds =       0.03 minutes
	total time  =          4 seconds =       0.07 minutes
Total time:
	user time   =      39.34 seconds =       0.66 minutes
	system time =       1.66 seconds =       0.03 minutes
	total time  =          4 seconds =       0.07 minutes
 MINTS: Wrapper to libmints.
   by Justin Turney

   Calculation information:
      Number of threads:                12
      Number of atoms:                   4
      Number of AO shells:              46
      Number of SO shells:              37
      Number of primitives:             82
      Number of atomic orbitals:       160
      Number of basis functions:       138

      Number of irreps:                  4
      Integral cutoff                 0.00e+00
      Number of functions per irrep: [  54   17   29   38 ]

 OEINTS: Overlap, kinetic, potential, dipole, and quadrupole integrals
         stored in file 35.

      Computing two-electron integrals...done
      Computed 11336407 non-zero two-electron integrals.
        Stored in file 33.


*** tstart() called on c2-24.compute.lan
*** at Mon Mar  8 17:39:53 2021


	Wfn Parameters:
	--------------------
	Wavefunction         = CCSD_T
	Number of irreps     = 4
	Number of MOs        = 138
	Number of active MOs = 136
	AO-Basis             = NONE
	Semicanonical        = false
	Reference            = UHF
	Print Level          = 1

	IRREP	# MOs	# FZDC	# DOCC	# SOCC	# VIRT	# FZVR
	-----	-----	------	------	------	------	------
	 A1	   54	    2	    3	    1	    48	    0
	 A2	   17	    0	    0	    0	    17	    0
	 B1	   29	    0	    1	    1	    27	    0
	 B2	   38	    0	    2	    0	    36	    0
	Transforming integrals...
	IWL integrals will be deleted.
	(OO|OO)...
	Presorting SO-basis two-electron integrals.
	Sorting File: SO Ints (nn|nn) nbuckets = 1
	Transforming the one-electron integrals and constructing Fock matrices
	Starting AA/AB first half-transformation.
	Sorting AA/AB half-transformed integrals.
	Starting BB first half-transformation.
	Sorting BB half-transformed integrals.
	First half integral transformation complete.
	Starting AA second half-transformation.
	Starting AB second half-transformation.
	Starting BB second half-transformation.
	Two-electron integral transformation complete.
	(OO|OV)...
	Starting AA second half-transformation.
	Starting AB second half-transformation.
	Starting BB second half-transformation.
	Two-electron integral transformation complete.
	(OO|VV)...
	Starting AA second half-transformation.
	Starting AB second half-transformation.
	Starting BB second half-transformation.
	Two-electron integral transformation complete.
	(OV|OO)...
	Starting AA/AB first half-transformation.
	Sorting AA/AB half-transformed integrals.
	Starting BB first half-transformation.
	Sorting BB half-transformed integrals.
	First half integral transformation complete.
	Starting AA second half-transformation.
	Starting AB second half-transformation.
	Starting BB second half-transformation.
	Two-electron integral transformation complete.
	(OV|OV)...
	Starting AA second half-transformation.
	Starting AB second half-transformation.
	Starting BB second half-transformation.
	Two-electron integral transformation complete.
	(OV|VV)...
	Starting AA second half-transformation.
	Starting AB second half-transformation.
	Starting BB second half-transformation.
	Two-electron integral transformation complete.
	(VV|OO)...
	Starting AA/AB first half-transformation.
	Sorting AA/AB half-transformed integrals.
	Starting BB first half-transformation.
	Sorting BB half-transformed integrals.
	First half integral transformation complete.
	Starting AA second half-transformation.
	Starting AB second half-transformation.
	Starting BB second half-transformation.
	Two-electron integral transformation complete.
	(VV|OV)...
	Starting AA second half-transformation.
	Starting AB second half-transformation.
	Starting BB second half-transformation.
	Two-electron integral transformation complete.
	(VV|VV)...
	Starting AA second half-transformation.
	Starting AB second half-transformation.
	Starting BB second half-transformation.
	Two-electron integral transformation complete.
	Frozen core energy     =   -126.36660675096321

	Size of irrep 0 of <AB|CD> integrals:      5.040 (MW) /     40.320 (MB)
	Size of irrep 1 of <AB|CD> integrals:      3.197 (MW) /     25.576 (MB)
	Size of irrep 2 of <AB|CD> integrals:      3.640 (MW) /     29.124 (MB)
	Size of irrep 3 of <AB|CD> integrals:      4.783 (MW) /     38.264 (MB)
	Total:                                    16.660 (MW) /    133.283 (MB)

	Size of irrep 0 of <ab|cd> integrals:      5.382 (MW) /     43.059 (MB)
	Size of irrep 1 of <ab|cd> integrals:      3.389 (MW) /     27.114 (MB)
	Size of irrep 2 of <ab|cd> integrals:      3.936 (MW) /     31.490 (MB)
	Size of irrep 3 of <ab|cd> integrals:      5.018 (MW) /     40.141 (MB)
	Total:                                    17.726 (MW) /    141.804 (MB)

	Size of irrep 0 of <Ab|Cd> integrals:     22.024 (MW) /    176.194 (MB)
	Size of irrep 1 of <Ab|Cd> integrals:     13.170 (MW) /    105.357 (MB)
	Size of irrep 2 of <Ab|Cd> integrals:     15.140 (MW) /    121.119 (MB)
	Size of irrep 3 of <Ab|Cd> integrals:     19.598 (MW) /    156.787 (MB)
	Total:                                    69.932 (MW) /    559.457 (MB)

	Size of irrep 0 of <IA|BC> integrals:      1.469 (MW) /     11.748 (MB)
	Size of irrep 1 of <IA|BC> integrals:      0.694 (MW) /      5.550 (MB)
	Size of irrep 2 of <IA|BC> integrals:      0.908 (MW) /      7.266 (MB)
	Size of irrep 3 of <IA|BC> integrals:      1.198 (MW) /      9.588 (MB)
	Total:                                     4.269 (MW) /     34.152 (MB)

	Size of irrep 0 of <ia|bc> integrals:      1.178 (MW) /      9.426 (MB)
	Size of irrep 1 of <ia|bc> integrals:      0.527 (MW) /      4.212 (MB)
	Size of irrep 2 of <ia|bc> integrals:      0.663 (MW) /      5.301 (MB)
	Size of irrep 3 of <ia|bc> integrals:      0.999 (MW) /      7.992 (MB)
	Total:                                     3.366 (MW) /     26.931 (MB)

	Size of irrep 0 of <Ia|Bc> integrals:      1.521 (MW) /     12.164 (MB)
	Size of irrep 1 of <Ia|Bc> integrals:      0.711 (MW) /      5.690 (MB)
	Size of irrep 2 of <Ia|Bc> integrals:      0.949 (MW) /      7.595 (MB)
	Size of irrep 3 of <Ia|Bc> integrals:      1.222 (MW) /      9.775 (MB)
	Total:                                     4.403 (MW) /     35.225 (MB)

	Size of irrep 0 of <iA|bC> integrals:      1.140 (MW) /      9.123 (MB)
	Size of irrep 1 of <iA|bC> integrals:      0.512 (MW) /      4.094 (MB)
	Size of irrep 2 of <iA|bC> integrals:      0.634 (MW) /      5.074 (MB)
	Size of irrep 3 of <iA|bC> integrals:      0.978 (MW) /      7.827 (MB)
	Total:                                     3.265 (MW) /     26.118 (MB)

	Size of irrep 0 of tIjAb amplitudes:       0.084 (MW) /      0.676 (MB)
	Size of irrep 1 of tIjAb amplitudes:       0.022 (MW) /      0.174 (MB)
	Size of irrep 2 of tIjAb amplitudes:       0.039 (MW) /      0.311 (MB)
	Size of irrep 3 of tIjAb amplitudes:       0.062 (MW) /      0.496 (MB)
	Total:                                     0.207 (MW) /      1.657 (MB)

	Nuclear Rep. energy          =     23.81368391710865
	SCF energy                   =   -150.87347055243288
	One-electron energy          =    -85.39314249460867
	Two-electron (AA) energy     =     10.36193429400022
	Two-electron (BB) energy     =      5.46564719057412
	Two-electron (AB) energy     =     21.24501329145525
	Two-electron energy          =     37.07259477602959
	Reference energy             =   -150.87347055243364

*** tstop() called on c2-24.compute.lan at Mon Mar  8 17:40:28 2021
Module time:
	user time   =     242.65 seconds =       4.04 minutes
	system time =      13.20 seconds =       0.22 minutes
	total time  =         35 seconds =       0.58 minutes
Total time:
	user time   =     288.16 seconds =       4.80 minutes
	system time =      15.41 seconds =       0.26 minutes
	total time  =         43 seconds =       0.72 minutes
            **************************
            *                        *
            *        CCENERGY        *
            *                        *
            **************************

    Nuclear Rep. energy (wfn)     =   23.813683917108648
    SCF energy          (wfn)     = -150.873470552432877
    Reference energy    (file100) = -150.873470552433645

    Input parameters:
    -----------------
    Wave function   =     CCSD_T
    Reference wfn   =     UHF
    Brueckner       =     No
    Memory (Mbytes) =     4000.0
    Maxiter         =     50
    R_Convergence   =     1.0e-10
    E_Convergence   =     1.0e-10
    Restart         =     Yes
    DIIS            =     Yes
    AO Basis        =     NONE
    ABCD            =     NEW
    Cache Level     =     2
    Cache Type      =     LRU
    Print Level     =     1
    Num. of threads =     12
    # Amps to Print =     10
    Print MP2 Amps? =     No
    Analyze T2 Amps =     No
    Print Pair Ener =     No
    Local CC        =     No
    SCS-MP2         =     False
    SCSN-MP2        =     False
    SCS-CCSD        =     False

MP2 correlation energy -0.4163271013671366
                Solving CC Amplitude Equations
                ------------------------------
  Iter             Energy              RMS        T1Diag      D1Diag    New D1Diag    D2Diag
  ----     ---------------------    ---------   ----------  ----------  ----------   --------
     0        -0.416327101367137    0.000e+00    0.000000    0.000000    0.000000    0.000000
     1        -0.427092501465000    5.702e-02    0.010587    0.000000    0.000000    0.000000
     2        -0.435195717964708    1.704e-02    0.011080    0.000000    0.000000    0.000000
     3        -0.437349786512800    8.779e-03    0.013003    0.000000    0.000000    0.000000
     4        -0.437223323016065    2.681e-03    0.013412    0.000000    0.000000    0.000000
     5        -0.437213825048582    1.394e-03    0.013605    0.000000    0.000000    0.000000
     6        -0.437242874569077    5.297e-04    0.013631    0.000000    0.000000    0.000000
     7        -0.437245848367439    2.147e-04    0.013625    0.000000    0.000000    0.000000
     8        -0.437246792528219    6.681e-05    0.013620    0.000000    0.000000    0.000000
     9        -0.437247477578343    2.387e-05    0.013619    0.000000    0.000000    0.000000
    10        -0.437246578120319    9.222e-06    0.013619    0.000000    0.000000    0.000000
    11        -0.437246744099178    4.003e-06    0.013619    0.000000    0.000000    0.000000
    12        -0.437246704384817    1.447e-06    0.013619    0.000000    0.000000    0.000000
    13        -0.437246712360227    7.313e-07    0.013619    0.000000    0.000000    0.000000
    14        -0.437246734949723    3.052e-07    0.013619    0.000000    0.000000    0.000000
    15        -0.437246736623957    1.111e-07    0.013619    0.000000    0.000000    0.000000
    16        -0.437246737196751    4.984e-08    0.013619    0.000000    0.000000    0.000000
    17        -0.437246737772629    1.921e-08    0.013619    0.000000    0.000000    0.000000
    18        -0.437246737628620    1.000e-08    0.013619    0.000000    0.000000    0.000000
    19        -0.437246737419179    3.948e-09    0.013619    0.000000    0.000000    0.000000
    20        -0.437246737408197    2.131e-09    0.013619    0.000000    0.000000    0.000000
    21        -0.437246737384745    8.140e-10    0.013619    0.000000    0.000000    0.000000
    22        -0.437246737383204    3.271e-10    0.013619    0.000000    0.000000    0.000000
    23        -0.437246737382258    1.698e-10    0.013619    0.000000    0.000000    0.000000
    24        -0.437246737382096    6.966e-11    0.013619    0.000000    0.000000    0.000000

    Iterations converged.


    Largest TIA Amplitudes:
              5  65        -0.0133484864
              5  67        -0.0111850364
              7  94         0.0103569257
              5  66        -0.0097390731
              4  65        -0.0074674453
              3   1         0.0074126912
              2   3         0.0072065740
              4  66         0.0071577496
              3   5        -0.0056068478
              3   6         0.0053781184

    Largest Tia Amplitudes:
              3  67        -0.0148547636
              2   2         0.0134249495
              3  69        -0.0107972968
              5  96         0.0079569444
              3  66        -0.0076831125
              2   1        -0.0068031066
              2   7         0.0055977229
              2   6        -0.0055823086
              1  25        -0.0054471209
              4 109         0.0053986094

    Largest TIJAB Amplitudes:
      7   4 100  71         0.0142771410
      7   4  55  23        -0.0135867106
      7   2 100  12        -0.0121311418
      4   2  71  12         0.0110232957
      6   5  50   9        -0.0086510514
      7   4  49  23         0.0082498386
      6   5  97  72        -0.0080846950
      7   4  94  71         0.0078398844
      7   4  55   8        -0.0076337107
      7   4 100  82        -0.0074042852

    Largest Tijab Amplitudes:
      5   1  66  56         0.0086749536
      5   1  66  50        -0.0085712686
      5   1  68  56         0.0081612465
      4   3  99  67        -0.0076582812
      5   1  68  50        -0.0074566784
      4   3  99  73        -0.0073224607
      4   2  99   2         0.0071913104
      4   2  99  12         0.0068663297
      4   2 100   9        -0.0067293990
      4   3  51  10        -0.0065289528

    Largest TIjAb Amplitudes:
      6   4  97  99        -0.0218834291
      7   5 100 103        -0.0218262420
      7   5 100 102         0.0188849355
      7   1  55  66        -0.0180631473
      7   5 100  96        -0.0170532317
      7   1  55  68        -0.0168451748
      4   1  23  66        -0.0167174635
      5   3  72  73        -0.0162578423
      4   1  23  68        -0.0155496035
      7   5  55  56        -0.0145643001

    SCF energy       (wfn)                    = -150.873470552432877
    Reference energy (file100)                = -150.873470552433645

    Opposite-spin MP2 correlation energy      =   -0.314472736496208
    Same-spin MP2 correlation energy          =   -0.101854364870929
    MP2 correlation energy                    =   -0.416327101367137
      * MP2 total energy                      = -151.289797653800775

    Opposite-spin CCSD correlation energy     =   -0.342134340107731
    Same-spin CCSD correlation energy         =   -0.095112397274365
    CCSD correlation energy                   =   -0.437246737382096
      * CCSD total energy                     = -151.310717289815727

            **************************
            *                        *
            *        CCTRIPLES       *
            *                        *
            **************************


    Wave function   =    CCSD_T
    Reference wfn   =      UHF

    Nuclear Rep. energy (wfn)                =   23.813683917108648
    SCF energy          (wfn)                = -150.873470552432877
    Reference energy    (file100)            = -150.873470552433645
    CCSD energy         (file100)            =   -0.437246737382096
    Total CCSD energy   (file100)            = -151.310717289815727

    Number of ijk index combinations:
    Spin Case AAA:                                  56
    Spin Case BBB:                                  20
    Spin Case AAB:                                 168
    Spin Case ABB:                                 120
    AAA (T) energy                             =   -0.000395824419021
    BBB (T) energy                             =   -0.000202238408902
    AAB (T) energy                             =   -0.006713061371357
    ABB (T) energy                             =   -0.004988270238439
    (T) energy                                   =   -0.012299394437719
      * CCSD(T) total energy                     = -151.323016684253446

Stephenergy -151.32301668425345
    Psi4 stopped on: Monday, 08 March 2021 05:41PM
    Psi4 wall time for execution: 0:01:40.81

*** Psi4 exiting successfully. Buy a developer a beer!
