
    -----------------------------------------------------------------------
          Psi4: An Open-Source Ab Initio Electronic Structure Package
                               Psi4 1.3.2 release

                         Git: Rev {HEAD} ecbda83 


    R. M. Parrish, L. A. Burns, D. G. A. Smith, A. C. Simmonett,
    A. E. DePrince III, E. G. Hohenstein, U. Bozkaya, A. Yu. Sokolov,
    R. Di Remigio, R. M. Richard, J. F. Gonthier, A. M. James,
    H. R. McAlexander, A. Kumar, M. Saitow, X. Wang, B. P. Pritchard,
    P. Verma, H. F. Schaefer III, K. Patkowski, R. A. King, E. F. Valeev,
    F. A. Evangelista, J. M. Turney, T. D. Crawford, and C. D. Sherrill,
    J. Chem. Theory Comput. 13(7) pp 3185--3197 (2017).
    (doi: 10.1021/acs.jctc.7b00174)


                         Additional Contributions by
    P. Kraus, H. Kruse, M. H. Lechner, M. C. Schieber, R. A. Shaw,
    A. Alenaizan, R. Galvelis, Z. L. Glick, S. Lehtola, and J. P. Misiewicz

    -----------------------------------------------------------------------


    Psi4 started on: Tuesday, 09 March 2021 02:29PM

    Process ID: 188671
    Host:       c5-20.compute.lan
    PSIDATADIR: /apps/gb/PSI4/1.3.2/share/psi4
    Memory:     500.0 MiB
    Threads:    12
    
  ==> Input File <==

--------------------------------------------------------------------------
memory 4 GB

molecule  {
0 3
O   -1.638982113598   -0.022705896175    0.000000000000 
H   -0.676942049298   -0.026728968996    0.000000000000          
H   -1.864503997238    0.913521087669    0.000000000000
O    1.799116319043   -0.033170069207    0.000000000000
}
set {
basis aug-cc-pvtz
reference uhf
e_convergence 10
scf_type pk
freeze_core true
}

set ccenergy {
e_convergence 10
r_convergence 10
}

e = energy('ccsd(t)')

print_out('Stephenergy {}'.format(e))

--------------------------------------------------------------------------

  Memory set to   3.725 GiB by Python driver.

*** tstart() called on c5-20.compute.lan
*** at Tue Mar  9 14:29:28 2021

   => Loading Basis Set <=

    Name: AUG-CC-PVTZ
    Role: ORBITAL
    Keyword: BASIS
    atoms 1, 4 entry O          line   327 file /apps/gb/PSI4/1.3.2/share/psi4/basis/aug-cc-pvtz.gbs 
    atoms 2-3  entry H          line    36 file /apps/gb/PSI4/1.3.2/share/psi4/basis/aug-cc-pvtz.gbs 


         ---------------------------------------------------------
                                   SCF
               by Justin Turney, Rob Parrish, Andy Simmonett
                          and Daniel G. A. Smith
                              UHF Reference
                       12 Threads,   3814 MiB Core
         ---------------------------------------------------------

  ==> Geometry <==

    Molecular point group: cs
    Full point group: Cs

    Geometry (in Angstrom), charge = 0, multiplicity = 3:

       Center              X                  Y                   Z               Mass       
    ------------   -----------------  -----------------  -----------------  -----------------
         O           -1.638982113598    -0.022705896175     0.000000000000    15.994914619570
         H           -0.676942049298    -0.026728968996     0.000000000000     1.007825032230
         H           -1.864503997238     0.913521087669     0.000000000000     1.007825032230
         O            1.799116319043    -0.033170069207     0.000000000000    15.994914619570

  Running in cs symmetry.

  Rotational constants: A =     20.44935  B =      0.17071  C =      0.16930 [cm^-1]
  Rotational constants: A = 613056.15563  B =   5117.87307  C =   5075.50211 [MHz]
  Nuclear repulsion =   21.824892960250494

  Charge       = 0
  Multiplicity = 3
  Electrons    = 18
  Nalpha       = 10
  Nbeta        = 8

  ==> Algorithm <==

  SCF Algorithm Type is PK.
  DIIS enabled.
  MOM disabled.
  Fractional occupation disabled.
  Guess Type is SAD.
  Energy threshold   = 1.00e-10
  Density threshold  = 1.00e-08
  Integral threshold = 0.00e+00

  ==> Primary Basis <==

  Basis Set: AUG-CC-PVTZ
    Blend: AUG-CC-PVTZ
    Number of shells: 46
    Number of basis function: 138
    Number of Cartesian functions: 160
    Spherical Harmonics?: true
    Max angular momentum: 3

  ==> Pre-Iterations <==

   -------------------------------------------------------
    Irrep   Nso     Nmo     Nalpha   Nbeta   Ndocc  Nsocc
   -------------------------------------------------------
     A'        92      92       0       0       0       0
     A"        46      46       0       0       0       0
   -------------------------------------------------------
    Total     138     138      10       8       8       2
   -------------------------------------------------------

  ==> Integral Setup <==

  Using in-core PK algorithm.
   Calculation information:
      Number of atoms:                   4
      Number of AO shells:              46
      Number of primitives:             82
      Number of atomic orbitals:       160
      Number of basis functions:       138

      Integral cutoff                 1.00e-12
      Number of threads:                12

  Performing in-core PK
  Using 91996872 doubles for integral storage.
  We computed 882220 shell quartets total.
  Whereas there are 584821 unique shell quartets.
    50.85 percent of shell quartets recomputed by reordering.

  ==> DiskJK: Disk-Based J/K Matrices <==

    J tasked:                  Yes
    K tasked:                  Yes
    wK tasked:                  No
    Memory [MiB]:             2861
    Schwarz Cutoff:          1E-12

    OpenMP threads:             12

  Minimum eigenvalue in the overlap matrix is 3.2341585095E-04.
  Using Symmetric Orthogonalization.

  SCF Guess: Superposition of Atomic Densities via on-the-fly atomic UHF.

  ==> Iterations <==

                        Total Energy        Delta E     RMS |[F,P]|

   @UHF iter SAD:  -149.38723081223634   -1.49387e+02   0.00000e+00 
   @UHF iter   1:  -150.76749210052870   -1.38026e+00   4.98343e-03 DIIS
   @UHF iter   2:  -150.83919106040429   -7.16990e-02   3.23207e-03 DIIS
   @UHF iter   3:  -150.87331595904692   -3.41249e-02   3.88105e-04 DIIS
   @UHF iter   4:  -150.87442677039274   -1.11081e-03   1.29574e-04 DIIS
   @UHF iter   5:  -150.87455574653387   -1.28976e-04   5.12702e-05 DIIS
   @UHF iter   6:  -150.87459000216518   -3.42556e-05   1.49243e-05 DIIS
   @UHF iter   7:  -150.87459319662509   -3.19446e-06   3.88074e-06 DIIS
   @UHF iter   8:  -150.87459348080179   -2.84177e-07   1.83513e-06 DIIS
   @UHF iter   9:  -150.87459358999212   -1.09190e-07   1.61310e-06 DIIS
   @UHF iter  10:  -150.87459368987140   -9.98793e-08   1.59438e-06 DIIS
   @UHF iter  11:  -150.87459393644730   -2.46576e-07   1.57033e-06 DIIS
   @UHF iter  12:  -150.87459521633355   -1.27989e-06   1.46395e-06 DIIS
   @UHF iter  13:  -150.87459729599840   -2.07966e-06   1.28946e-06 DIIS
   @UHF iter  14:  -150.87460000688088   -2.71088e-06   1.18384e-06 DIIS
   @UHF iter  15:  -150.87460018178157   -1.74901e-07   9.47228e-07 DIIS
   @UHF iter  16:  -150.87460197576922   -1.79399e-06   2.21012e-06 DIIS
   @UHF iter  17:  -150.87460199229267   -1.65234e-08   1.12756e-06 DIIS
   @UHF iter  18:  -150.87460201854981   -2.62571e-08   6.77463e-07 DIIS
   @UHF iter  19:  -150.87460202033986   -1.79006e-09   3.25183e-07 DIIS
   @UHF iter  20:  -150.87460202098956   -6.49692e-10   8.34155e-08 DIIS
   @UHF iter  21:  -150.87460202102022   -3.06670e-11   2.35395e-08 DIIS
   @UHF iter  22:  -150.87460202102318   -2.95586e-12   6.44502e-09 DIIS
  Energy and wave function converged.


  ==> Post-Iterations <==

   @Spin Contamination Metric:   9.390869401E-03
   @S^2 Expected:                2.000000000E+00
   @S^2 Observed:                2.009390869E+00
   @S   Expected:                1.000000000E+00
   @S   Observed:                1.000000000E+00

    Orbital Energies [Eh]
    ---------------------

    Alpha Occupied:                                                       

       1Ap   -20.730872     2Ap   -20.561802     3Ap    -1.439681  
       4Ap    -1.345324     5Ap    -0.730596     1App   -0.730508  
       6Ap    -0.708615     7Ap    -0.632889     8Ap    -0.578800  
       2App   -0.504186  

    Alpha Virtual:                                                        

       9Ap     0.034147    10Ap     0.053399    11Ap     0.128656  
       3App    0.132430    12Ap     0.147328    13Ap     0.160356  
      14Ap     0.182751     4App    0.183132    15Ap     0.206919  
      16Ap     0.235617    17Ap     0.268838     5App    0.280904  
      18Ap     0.289336     6App    0.318353    19Ap     0.361946  
      20Ap     0.386750    21Ap     0.456678    22Ap     0.554549  
       7App    0.603397    23Ap     0.607974    24Ap     0.643373  
      25Ap     0.666357     8App    0.686520    26Ap     0.711411  
       9App    0.733483    10App    0.747382    27Ap     0.756837  
      28Ap     0.788835    11App    0.824974    29Ap     0.837790  
      30Ap     0.853913    12App    0.876071    31Ap     0.913786  
      32Ap     0.927939    13App    0.937798    33Ap     0.949365  
      14App    0.973383    34Ap     0.976120    35Ap     1.037690  
      36Ap     1.084583    15App    1.163207    37Ap     1.170441  
      16App    1.210916    38Ap     1.219379    39Ap     1.264984  
      40Ap     1.276572    17App    1.521173    41Ap     1.531744  
      18App    1.589195    42Ap     1.600498    43Ap     1.806958  
      44Ap     1.814819    19App    1.978620    45Ap     1.978679  
      46Ap     2.003782    20App    2.009443    47Ap     2.017971  
      21App    2.034488    48Ap     2.039583    22App    2.089482  
      49Ap     2.122080    50Ap     2.138183    23App    2.162602  
      51Ap     2.237913    24App    2.286088    52Ap     2.326570  
      53Ap     2.369204    25App    2.427202    54Ap     2.451800  
      26App    2.459282    55Ap     2.484430    56Ap     2.547680  
      57Ap     2.655805    27App    2.722858    58Ap     2.723279  
      59Ap     2.855653    60Ap     2.907853    28App    2.933833  
      61Ap     3.682838    62Ap     3.811870    29App    4.029471  
      30App    4.053727    63Ap     4.068410    31App    4.142435  
      64Ap     4.180562    65Ap     4.267906    32App    4.290065  
      66Ap     4.359916    33App    4.389164    67Ap     4.426084  
      34App    4.428698    68Ap     4.564350    69Ap     4.772336  
      70Ap     4.936121    35App    5.150884    71Ap     5.179672  
      72Ap     5.294413    73Ap     5.366686    36App    5.525559  
      74Ap     5.676578    75Ap     6.192942    37App    6.314014  
      76Ap     6.314036    38App    6.366629    77Ap     6.367773  
      39App    6.466427    78Ap     6.483645    79Ap     6.530746  
      80Ap     6.595621    40App    6.716722    81Ap     6.814125  
      41App    6.818176    82Ap     6.917030    42App    6.924690  
      83Ap     6.952429    84Ap     7.039104    43App    7.139464  
      44App    7.269603    85Ap     7.311534    45App    7.322875  
      86Ap     7.352826    46App    7.410463    87Ap     7.634146  
      88Ap     7.923406    89Ap     7.954083    90Ap     8.807940  
      91Ap     8.987968    92Ap    16.302935  

    Beta Occupied:                                                        

       1Ap   -20.652127     2Ap   -20.561875     3Ap    -1.345613  
       4Ap    -1.097133     5Ap    -0.708417     6Ap    -0.581630  
       7Ap    -0.540530     1App   -0.504223  

    Beta Virtual:                                                         

       8Ap     0.034060     9Ap     0.047324     2App    0.049966  
      10Ap     0.058773    11Ap     0.143157    12Ap     0.151672  
       3App    0.160107    13Ap     0.179709    14Ap     0.207432  
      15Ap     0.217434     4App    0.226533    16Ap     0.244449  
      17Ap     0.271245     5App    0.281099    18Ap     0.292013  
       6App    0.319836    19Ap     0.365292    20Ap     0.393696  
      21Ap     0.457148    22Ap     0.556674     7App    0.636277  
      23Ap     0.638223    24Ap     0.646743    25Ap     0.669911  
       8App    0.700500    26Ap     0.712053     9App    0.734261  
      10App    0.748435    27Ap     0.770588    28Ap     0.800387  
      29Ap     0.845126    11App    0.860575    30Ap     0.911876  
      12App    0.925664    31Ap     0.928810    32Ap     0.945964  
      13App    0.948201    33Ap     0.967393    34Ap     1.008242  
      14App    1.022966    35Ap     1.039329    36Ap     1.093546  
      15App    1.167617    37Ap     1.173544    16App    1.218706  
      38Ap     1.260442    39Ap     1.270937    40Ap     1.284883  
      17App    1.521945    41Ap     1.545940    18App    1.590187  
      42Ap     1.627109    43Ap     1.809742    44Ap     1.817001  
      45Ap     2.014251    19App    2.016780    46Ap     2.016896  
      20App    2.038635    47Ap     2.045166    21App    2.124571  
      48Ap     2.162568    49Ap     2.173137    22App    2.179254  
      50Ap     2.180475    23App    2.213829    51Ap     2.278183  
      24App    2.287516    52Ap     2.336591    53Ap     2.385496  
      25App    2.430660    54Ap     2.453970    26App    2.466742  
      55Ap     2.491237    56Ap     2.553395    57Ap     2.662546  
      27App    2.723427    58Ap     2.725281    59Ap     2.859283  
      60Ap     2.909705    28App    2.934475    61Ap     3.683109  
      62Ap     3.812966    29App    4.029997    30App    4.126687  
      63Ap     4.171256    31App    4.239577    64Ap     4.240863  
      65Ap     4.275196    32App    4.290095    66Ap     4.377001  
      33App    4.389447    34App    4.430214    67Ap     4.456356  
      68Ap     4.565107    69Ap     4.773366    70Ap     4.936840  
      35App    5.150873    71Ap     5.180070    72Ap     5.294616  
      73Ap     5.367492    36App    5.525560    74Ap     5.676903  
      75Ap     6.193817    37App    6.422968    76Ap     6.422984  
      38App    6.442772    77Ap     6.444079    78Ap     6.518892  
      39App    6.522293    79Ap     6.551297    80Ap     6.642612  
      40App    6.719113    81Ap     6.917829    41App    7.005568  
      82Ap     7.006289    42App    7.034255    83Ap     7.060012  
      84Ap     7.122178    43App    7.141312    44App    7.269704  
      85Ap     7.311769    45App    7.323446    86Ap     7.352970  
      46App    7.411029    87Ap     7.636393    88Ap     7.923747  
      89Ap     7.954440    90Ap     8.811342    91Ap     9.062362  
      92Ap    16.303236  

    Final Occupation by Irrep:
             Ap   App 
    DOCC [     7,    1 ]
    SOCC [     1,    1 ]

  @UHF Final Energy:  -150.87460202102318

   => Energetics <=

    Nuclear Repulsion Energy =             21.8248929602504944
    One-Electron Energy =                -251.4441703783093942
    Two-Electron Energy =                  78.7446753970357349
    Total Energy =                       -150.8746020210231791

  UHF NO Occupations:
  HONO-2 :    7 Ap 1.9970404
  HONO-1 :    2App 1.0000000
  HONO-0 :    8 Ap 1.0000000
  LUNO+0 :    9 Ap 0.0029596
  LUNO+1 :   10 Ap 0.0017385
  LUNO+2 :   11 Ap 0.0000024
  LUNO+3 :   12 Ap 0.0000006


Computation Completed


Properties will be evaluated at   0.000000,   0.000000,   0.000000 [a0]

Properties computed using the SCF density matrix

  Nuclear Dipole Moment: [e a0]
     X:    -2.3818      Y:     0.8311      Z:     0.0000

  Electronic Dipole Moment: [e a0]
     X:     2.9380      Y:    -0.2215      Z:     0.0000

  Dipole Moment: [e a0]
     X:     0.5562      Y:     0.6095      Z:     0.0000     Total:     0.8252

  Dipole Moment: [D]
     X:     1.4138      Y:     1.5493      Z:     0.0000     Total:     2.0974


*** tstop() called on c5-20.compute.lan at Tue Mar  9 14:29:34 2021
Module time:
	user time   =      59.83 seconds =       1.00 minutes
	system time =       0.93 seconds =       0.02 minutes
	total time  =          6 seconds =       0.10 minutes
Total time:
	user time   =      59.83 seconds =       1.00 minutes
	system time =       0.93 seconds =       0.02 minutes
	total time  =          6 seconds =       0.10 minutes
 MINTS: Wrapper to libmints.
   by Justin Turney

   Calculation information:
      Number of threads:                12
      Number of atoms:                   4
      Number of AO shells:              46
      Number of SO shells:              46
      Number of primitives:             82
      Number of atomic orbitals:       160
      Number of basis functions:       138

      Number of irreps:                  2
      Integral cutoff                 0.00e+00
      Number of functions per irrep: [  92   46 ]

 OEINTS: Overlap, kinetic, potential, dipole, and quadrupole integrals
         stored in file 35.

      Computing two-electron integrals...done
      Computed 22924923 non-zero two-electron integrals.
        Stored in file 33.


*** tstart() called on c5-20.compute.lan
*** at Tue Mar  9 14:29:37 2021


	Wfn Parameters:
	--------------------
	Wavefunction         = CCSD_T
	Number of irreps     = 2
	Number of MOs        = 138
	Number of active MOs = 136
	AO-Basis             = NONE
	Semicanonical        = false
	Reference            = UHF
	Print Level          = 1

	IRREP	# MOs	# FZDC	# DOCC	# SOCC	# VIRT	# FZVR
	-----	-----	------	------	------	------	------
	 Ap	   92	    2	    5	    1	    84	    0
	 App	   46	    0	    1	    1	    44	    0
	Transforming integrals...
	IWL integrals will be deleted.
	(OO|OO)...
	Presorting SO-basis two-electron integrals.
	Sorting File: SO Ints (nn|nn) nbuckets = 1
	Transforming the one-electron integrals and constructing Fock matrices
	Starting AA/AB first half-transformation.
	Sorting AA/AB half-transformed integrals.
	Starting BB first half-transformation.
	Sorting BB half-transformed integrals.
	First half integral transformation complete.
	Starting AA second half-transformation.
	Starting AB second half-transformation.
	Starting BB second half-transformation.
	Two-electron integral transformation complete.
	(OO|OV)...
	Starting AA second half-transformation.
	Starting AB second half-transformation.
	Starting BB second half-transformation.
	Two-electron integral transformation complete.
	(OO|VV)...
	Starting AA second half-transformation.
	Starting AB second half-transformation.
	Starting BB second half-transformation.
	Two-electron integral transformation complete.
	(OV|OO)...
	Starting AA/AB first half-transformation.
	Sorting AA/AB half-transformed integrals.
	Starting BB first half-transformation.
	Sorting BB half-transformed integrals.
	First half integral transformation complete.
	Starting AA second half-transformation.
	Starting AB second half-transformation.
	Starting BB second half-transformation.
	Two-electron integral transformation complete.
	(OV|OV)...
	Starting AA second half-transformation.
	Starting AB second half-transformation.
	Starting BB second half-transformation.
	Two-electron integral transformation complete.
	(OV|VV)...
	Starting AA second half-transformation.
	Starting AB second half-transformation.
	Starting BB second half-transformation.
	Two-electron integral transformation complete.
	(VV|OO)...
	Starting AA/AB first half-transformation.
	Sorting AA/AB half-transformed integrals.
	Starting BB first half-transformation.
	Sorting BB half-transformed integrals.
	First half integral transformation complete.
	Starting AA second half-transformation.
	Starting AB second half-transformation.
	Starting BB second half-transformation.
	Two-electron integral transformation complete.
	(VV|OV)...
	Starting AA second half-transformation.
	Starting AB second half-transformation.
	Starting BB second half-transformation.
	Two-electron integral transformation complete.
	(VV|VV)...
	Starting AA second half-transformation.
	Starting AB second half-transformation.
	Starting BB second half-transformation.
	Two-electron integral transformation complete.
	Frozen core energy     =   -125.42683574856957

	Size of irrep 0 of <AB|CD> integrals:     19.643 (MW) /    157.141 (MB)
	Size of irrep 1 of <AB|CD> integrals:     13.660 (MW) /    109.283 (MB)
	Total:                                    33.303 (MW) /    266.424 (MB)

	Size of irrep 0 of <ab|cd> integrals:     20.794 (MW) /    166.349 (MB)
	Size of irrep 1 of <ab|cd> integrals:     14.631 (MW) /    117.045 (MB)
	Total:                                    35.424 (MW) /    283.394 (MB)

	Size of irrep 0 of <Ab|Cd> integrals:     83.174 (MW) /    665.395 (MB)
	Size of irrep 1 of <Ab|Cd> integrals:     56.550 (MW) /    452.403 (MB)
	Total:                                   139.725 (MW) /   1117.798 (MB)

	Size of irrep 0 of <IA|BC> integrals:      5.323 (MW) /     42.586 (MB)
	Size of irrep 1 of <IA|BC> integrals:      3.193 (MW) /     25.547 (MB)
	Total:                                     8.517 (MW) /     68.133 (MB)

	Size of irrep 0 of <ia|bc> integrals:      4.348 (MW) /     34.780 (MB)
	Size of irrep 1 of <ia|bc> integrals:      2.372 (MW) /     18.972 (MB)
	Total:                                     6.719 (MW) /     53.752 (MB)

	Size of irrep 0 of <Ia|Bc> integrals:      5.472 (MW) /     43.776 (MB)
	Size of irrep 1 of <Ia|Bc> integrals:      3.309 (MW) /     26.470 (MB)
	Total:                                     8.781 (MW) /     70.246 (MB)

	Size of irrep 0 of <iA|bC> integrals:      4.232 (MW) /     33.853 (MB)
	Size of irrep 1 of <iA|bC> integrals:      2.286 (MW) /     18.289 (MB)
	Total:                                     6.518 (MW) /     52.142 (MB)

	Size of irrep 0 of tIjAb amplitudes:       0.292 (MW) /      2.335 (MB)
	Size of irrep 1 of tIjAb amplitudes:       0.120 (MW) /      0.963 (MB)
	Total:                                     0.412 (MW) /      3.297 (MB)

	Nuclear Rep. energy          =     21.82489296025049
	SCF energy                   =   -150.87460202102318
	One-electron energy          =    -83.09717316942124
	Two-electron (AA) energy     =      9.92295693159108
	Two-electron (BB) energy     =      5.28120487132145
	Two-electron (AB) energy     =     20.62035213380305
	Two-electron energy          =     35.82451393671558
	Reference energy             =   -150.87460202102474

*** tstop() called on c5-20.compute.lan at Tue Mar  9 14:30:10 2021
Module time:
	user time   =     105.61 seconds =       1.76 minutes
	system time =      18.32 seconds =       0.31 minutes
	total time  =         33 seconds =       0.55 minutes
Total time:
	user time   =     171.81 seconds =       2.86 minutes
	system time =      19.83 seconds =       0.33 minutes
	total time  =         42 seconds =       0.70 minutes
            **************************
            *                        *
            *        CCENERGY        *
            *                        *
            **************************

    Nuclear Rep. energy (wfn)     =   21.824892960250494
    SCF energy          (wfn)     = -150.874602021023179
    Reference energy    (file100) = -150.874602021024742

    Input parameters:
    -----------------
    Wave function   =     CCSD_T
    Reference wfn   =     UHF
    Brueckner       =     No
    Memory (Mbytes) =     4000.0
    Maxiter         =     50
    R_Convergence   =     1.0e-10
    E_Convergence   =     1.0e-10
    Restart         =     Yes
    DIIS            =     Yes
    AO Basis        =     NONE
    ABCD            =     NEW
    Cache Level     =     2
    Cache Type      =     LRU
    Print Level     =     1
    Num. of threads =     12
    # Amps to Print =     10
    Print MP2 Amps? =     No
    Analyze T2 Amps =     No
    Print Pair Ener =     No
    Local CC        =     No
    SCS-MP2         =     False
    SCSN-MP2        =     False
    SCS-CCSD        =     False

MP2 correlation energy -0.4161290116208060
                Solving CC Amplitude Equations
                ------------------------------
  Iter             Energy              RMS        T1Diag      D1Diag    New D1Diag    D2Diag
  ----     ---------------------    ---------   ----------  ----------  ----------   --------
     0        -0.416129011620806    0.000e+00    0.000000    0.000000    0.000000    0.000000
     1        -0.426890947718579    5.667e-02    0.010456    0.000000    0.000000    0.000000
     2        -0.434981838864595    1.687e-02    0.010936    0.000000    0.000000    0.000000
     3        -0.437100813347326    8.479e-03    0.012773    0.000000    0.000000    0.000000
     4        -0.436975304593970    2.519e-03    0.013122    0.000000    0.000000    0.000000
     5        -0.436963894165548    1.271e-03    0.013266    0.000000    0.000000    0.000000
     6        -0.436989836490801    5.024e-04    0.013279    0.000000    0.000000    0.000000
     7        -0.436993863606939    2.254e-04    0.013269    0.000000    0.000000    0.000000
     8        -0.436994655306131    7.588e-05    0.013263    0.000000    0.000000    0.000000
     9        -0.436995875196620    4.503e-05    0.013262    0.000000    0.000000    0.000000
    10        -0.436994696048246    3.664e-05    0.013262    0.000000    0.000000    0.000000
    11        -0.436994797308693    3.521e-05    0.013262    0.000000    0.000000    0.000000
    12        -0.436994661206099    3.460e-05    0.013263    0.000000    0.000000    0.000000
    13        -0.436994574171179    3.415e-05    0.013264    0.000000    0.000000    0.000000
    14        -0.436995002371857    3.322e-05    0.013270    0.000000    0.000000    0.000000
    15        -0.436995044513938    3.082e-05    0.013283    0.000000    0.000000    0.000000
    16        -0.436995017759437    2.540e-05    0.013356    0.000000    0.000000    0.000000
    17        -0.436994994736321    1.476e-05    0.013406    0.000000    0.000000    0.000000
    18        -0.436994920183641    6.489e-06    0.013428    0.000000    0.000000    0.000000
    19        -0.436995072502224    2.881e-06    0.013433    0.000000    0.000000    0.000000
    20        -0.436995154441674    1.359e-06    0.013434    0.000000    0.000000    0.000000
    21        -0.436995160062404    5.698e-07    0.013434    0.000000    0.000000    0.000000
    22        -0.436995160383168    2.259e-07    0.013434    0.000000    0.000000    0.000000
    23        -0.436995160941875    9.650e-08    0.013434    0.000000    0.000000    0.000000
    24        -0.436995160819306    4.096e-08    0.013434    0.000000    0.000000    0.000000
    25        -0.436995161475714    2.154e-08    0.013434    0.000000    0.000000    0.000000
    26        -0.436995161856595    7.527e-09    0.013434    0.000000    0.000000    0.000000
    27        -0.436995161930505    2.717e-09    0.013434    0.000000    0.000000    0.000000
    28        -0.436995161955535    1.664e-09    0.013434    0.000000    0.000000    0.000000
    29        -0.436995161955910    1.378e-09    0.013434    0.000000    0.000000    0.000000
    30        -0.436995161945496    1.236e-09    0.013434    0.000000    0.000000    0.000000
    31        -0.436995161936313    1.158e-09    0.013434    0.000000    0.000000    0.000000
    32        -0.436995161930159    1.102e-09    0.013434    0.000000    0.000000    0.000000
    33        -0.436995161927191    1.005e-09    0.013434    0.000000    0.000000    0.000000
    34        -0.436995161928758    7.361e-10    0.013434    0.000000    0.000000    0.000000
    35        -0.436995161930513    3.722e-10    0.013434    0.000000    0.000000    0.000000
    36        -0.436995161931114    1.463e-10    0.013434    0.000000    0.000000    0.000000
    37        -0.436995161929609    5.523e-11    0.013434    0.000000    0.000000    0.000000

    Iterations converged.


    Largest TIA Amplitudes:
              7  87        -0.0126153811
              7  84        -0.0115660479
              4   3         0.0095788795
              7  85        -0.0095268218
              6  84        -0.0081228550
              5   2         0.0070173063
              2   2        -0.0066746331
              4  10        -0.0064861749
              5   9        -0.0062926289
              2   4         0.0062381498

    Largest Tia Amplitudes:
              5  86        -0.0132959132
              5  89        -0.0125336546
              3   3         0.0084971196
              5  85        -0.0072909763
              3  11        -0.0068083824
              4   1        -0.0062166473
              3  10        -0.0059619996
              4   4        -0.0058437414
              1  20         0.0057286449
              5  88        -0.0052554309

    Largest TIJAB Amplitudes:
      6   2  92  21        -0.0143843919
      6   2 102  39        -0.0096864499
      4   2  21  20         0.0080749881
      6   2 111  54        -0.0080717764
      4   2  29  21        -0.0079317986
      4   2  21   3        -0.0078607426
      6   2 111  21         0.0078316561
      7   5  90  17        -0.0077935958
      6   2 102  38         0.0077794176
      6   2  93  21         0.0077128525

    Largest Tijab Amplitudes:
      4   1  91  85        -0.0079669153
      5   3  92  18        -0.0078910078
      4   1 106  85        -0.0073723981
      5   3  89  11        -0.0066944146
      5   2  93  17         0.0062567481
      3   2  17  16         0.0062225151
      5   2 100  17         0.0061647494
      4   1 106  87        -0.0058932728
      4   1  91  87        -0.0058781733
      3   2  22  13        -0.0055247877

    Largest TIjAb Amplitudes:
      3   2  12  13        -0.0178953686
      2   1 102  85        -0.0170201194
      6   1  39  85         0.0155741203
      5   3  22  22        -0.0148475100
      2   1  88  85        -0.0145110812
      5   3  10  11        -0.0144968809
      6   1  14  85         0.0137091411
      6   1 102   1         0.0136052331
      2   1 102  87        -0.0135298033
      4   1 103  85        -0.0133107837

    SCF energy       (wfn)                    = -150.874602021023179
    Reference energy (file100)                = -150.874602021024742

    Opposite-spin MP2 correlation energy      =   -0.314404451613067
    Same-spin MP2 correlation energy          =   -0.101724560007739
    MP2 correlation energy                    =   -0.416129011620806
      * MP2 total energy                      = -151.290731032645539

    Opposite-spin CCSD correlation energy     =   -0.342024874166907
    Same-spin CCSD correlation energy         =   -0.094970287762702
    CCSD correlation energy                   =   -0.436995161929609
      * CCSD total energy                     = -151.311597182954358

            **************************
            *                        *
            *        CCTRIPLES       *
            *                        *
            **************************


    Wave function   =    CCSD_T
    Reference wfn   =      UHF

    Nuclear Rep. energy (wfn)                =   21.824892960250494
    SCF energy          (wfn)                = -150.874602021023179
    Reference energy    (file100)            = -150.874602021024742
    CCSD energy         (file100)            =   -0.436995161929609
    Total CCSD energy   (file100)            = -151.311597182954358

    Number of ijk index combinations:
    Spin Case AAA:                                  56
    Spin Case BBB:                                  20
    Spin Case AAB:                                 168
    Spin Case ABB:                                 120
    AAA (T) energy                             =   -0.000394254650609
    BBB (T) energy                             =   -0.000199434786965
    AAB (T) energy                             =   -0.006706433281544
    ABB (T) energy                             =   -0.004974918363019
    (T) energy                                   =   -0.012275041082137
      * CCSD(T) total energy                     = -151.323872224036478

Stephenergy -151.32387222403648
    Psi4 stopped on: Tuesday, 09 March 2021 02:32PM
    Psi4 wall time for execution: 0:03:11.80

*** Psi4 exiting successfully. Buy a developer a beer!
