
    -----------------------------------------------------------------------
          Psi4: An Open-Source Ab Initio Electronic Structure Package
                               Psi4 1.3.2 release

                         Git: Rev {HEAD} ecbda83 


    R. M. Parrish, L. A. Burns, D. G. A. Smith, A. C. Simmonett,
    A. E. DePrince III, E. G. Hohenstein, U. Bozkaya, A. Yu. Sokolov,
    R. Di Remigio, R. M. Richard, J. F. Gonthier, A. M. James,
    H. R. McAlexander, A. Kumar, M. Saitow, X. Wang, B. P. Pritchard,
    P. Verma, H. F. Schaefer III, K. Patkowski, R. A. King, E. F. Valeev,
    F. A. Evangelista, J. M. Turney, T. D. Crawford, and C. D. Sherrill,
    J. Chem. Theory Comput. 13(7) pp 3185--3197 (2017).
    (doi: 10.1021/acs.jctc.7b00174)


                         Additional Contributions by
    P. Kraus, H. Kruse, M. H. Lechner, M. C. Schieber, R. A. Shaw,
    A. Alenaizan, R. Galvelis, Z. L. Glick, S. Lehtola, and J. P. Misiewicz

    -----------------------------------------------------------------------


    Psi4 started on: Wednesday, 10 March 2021 09:27AM

    Process ID: 43919
    Host:       b1-8.compute.lan
    PSIDATADIR: /apps/gb/PSI4/1.3.2/share/psi4
    Memory:     500.0 MiB
    Threads:    12
    
  ==> Input File <==

--------------------------------------------------------------------------
memory 4 GB

molecule  {
0 3
O   -0.000000000000    0.000000000000   -1.464477094300
H    0.000000000000   -0.734514175600   -0.845583954200
H   -0.000000000000    0.734514175600   -0.845583954200
O   -0.000000000000    0.000000000000    1.571036047100
}
set {
basis aug-cc-pvtz
reference uhf
e_convergence 10
scf_type pk
freeze_core true
}

set ccenergy {
e_convergence 10
r_convergence 10
}

e = energy('ccsd(t)')

print_out('Stephenergy {}'.format(e))

--------------------------------------------------------------------------

  Memory set to   3.725 GiB by Python driver.

*** tstart() called on b1-8.compute.lan
*** at Wed Mar 10 09:27:48 2021

   => Loading Basis Set <=

    Name: AUG-CC-PVTZ
    Role: ORBITAL
    Keyword: BASIS
    atoms 1, 4 entry O          line   327 file /apps/gb/PSI4/1.3.2/share/psi4/basis/aug-cc-pvtz.gbs 
    atoms 2-3  entry H          line    36 file /apps/gb/PSI4/1.3.2/share/psi4/basis/aug-cc-pvtz.gbs 


         ---------------------------------------------------------
                                   SCF
               by Justin Turney, Rob Parrish, Andy Simmonett
                          and Daniel G. A. Smith
                              UHF Reference
                       12 Threads,   3814 MiB Core
         ---------------------------------------------------------

  ==> Geometry <==

    Molecular point group: c2v
    Full point group: C2v

    Geometry (in Angstrom), charge = 0, multiplicity = 3:

       Center              X                  Y                   Z               Mass       
    ------------   -----------------  -----------------  -----------------  -----------------
         O            0.000000000000     0.000000000000    -1.464477094306    15.994914619570
         H            0.000000000000    -0.734514175600    -0.845583954206     1.007825032230
         H           -0.000000000000     0.734514175600    -0.845583954206     1.007825032230
         O            0.000000000000     0.000000000000     1.571036047094    15.994914619570

  Running in c2v symmetry.

  Rotational constants: A =     15.50176  B =      0.22410  C =      0.22091 [cm^-1]
  Rotational constants: A = 464731.05975  B =   6718.38257  C =   6622.64237 [MHz]
  Nuclear repulsion =   23.684556280547397

  Charge       = 0
  Multiplicity = 3
  Electrons    = 18
  Nalpha       = 10
  Nbeta        = 8

  ==> Algorithm <==

  SCF Algorithm Type is PK.
  DIIS enabled.
  MOM disabled.
  Fractional occupation disabled.
  Guess Type is SAD.
  Energy threshold   = 1.00e-10
  Density threshold  = 1.00e-08
  Integral threshold = 0.00e+00

  ==> Primary Basis <==

  Basis Set: AUG-CC-PVTZ
    Blend: AUG-CC-PVTZ
    Number of shells: 46
    Number of basis function: 138
    Number of Cartesian functions: 160
    Spherical Harmonics?: true
    Max angular momentum: 3

  ==> Pre-Iterations <==

   -------------------------------------------------------
    Irrep   Nso     Nmo     Nalpha   Nbeta   Ndocc  Nsocc
   -------------------------------------------------------
     A1        54      54       0       0       0       0
     A2        17      17       0       0       0       0
     B1        29      29       0       0       0       0
     B2        38      38       0       0       0       0
   -------------------------------------------------------
    Total     138     138      10       8       8       2
   -------------------------------------------------------

  ==> Integral Setup <==

  Using in-core PK algorithm.
   Calculation information:
      Number of atoms:                   4
      Number of AO shells:              46
      Number of primitives:             82
      Number of atomic orbitals:       160
      Number of basis functions:       138

      Integral cutoff                 1.00e-12
      Number of threads:                12

  Performing in-core PK
  Using 91996872 doubles for integral storage.
  We computed 928922 shell quartets total.
  Whereas there are 584821 unique shell quartets.
    58.84 percent of shell quartets recomputed by reordering.

  ==> DiskJK: Disk-Based J/K Matrices <==

    J tasked:                  Yes
    K tasked:                  Yes
    wK tasked:                  No
    Memory [MiB]:             2861
    Schwarz Cutoff:          1E-12

    OpenMP threads:             12

  Minimum eigenvalue in the overlap matrix is 3.6335625474E-04.
  Using Symmetric Orthogonalization.

  SCF Guess: Superposition of Atomic Densities via on-the-fly atomic UHF.

  ==> Iterations <==

                        Total Energy        Delta E     RMS |[F,P]|

   @UHF iter SAD:  -149.40675381131217   -1.49407e+02   0.00000e+00 
   @UHF iter   1:  -150.76109253812660   -1.35434e+00   6.98933e-03 DIIS
   @UHF iter   2:  -150.83517005905264   -7.40775e-02   4.54051e-03 DIIS
   @UHF iter   3:  -150.87019186323403   -3.50218e-02   5.42759e-04 DIIS
   @UHF iter   4:  -150.87132128079489   -1.12942e-03   1.78493e-04 DIIS
   @UHF iter   5:  -150.87144587393917   -1.24593e-04   6.97850e-05 DIIS
   @UHF iter   6:  -150.87147821050297   -3.23366e-05   1.97971e-05 DIIS
   @UHF iter   7:  -150.87148099827607   -2.78777e-06   4.65720e-06 DIIS
   @UHF iter   8:  -150.87148116627907   -1.68003e-07   1.24462e-06 DIIS
   @UHF iter   9:  -150.87148117829199   -1.20129e-08   3.37760e-07 DIIS
   @UHF iter  10:  -150.87148117921288   -9.20892e-10   1.54453e-07 DIIS
   @UHF iter  11:  -150.87148117947052   -2.57643e-10   6.13367e-08 DIIS
   @UHF iter  12:  -150.87148117951352   -4.30020e-11   9.82312e-09 DIIS
  Energy and wave function converged.


  ==> Post-Iterations <==

   @Spin Contamination Metric:   9.048019659E-03
   @S^2 Expected:                2.000000000E+00
   @S^2 Observed:                2.009048020E+00
   @S   Expected:                1.000000000E+00
   @S   Observed:                1.000000000E+00

    Orbital Energies [Eh]
    ---------------------

    Alpha Occupied:                                                       

       1A1   -20.734001     2A1   -20.560886     3A1    -1.444061  
       4A1    -1.347418     1B2    -0.735533     1B1    -0.734536  
       2B2    -0.698586     5A1    -0.642737     6A1    -0.581103  
       2B1    -0.503684  

    Alpha Virtual:                                                        

       7A1     0.036132     3B2     0.048819     8A1     0.130631  
       3B1     0.130637     9A1     0.152816     4B2     0.159154  
       4B1     0.185921     5B2     0.186808    10A1     0.191960  
      11A1     0.264142     6B2     0.264273     1A2     0.266489  
      12A1     0.276012     5B1     0.325748    13A1     0.385539  
       7B2     0.387352    14A1     0.456873     8B2     0.475708  
       2A2     0.613053     9B2     0.629764    15A1     0.629800  
      16A1     0.648553     6B1     0.653978    17A1     0.717447  
       3A2     0.733613    10B2     0.751319     7B1     0.764582  
      18A1     0.778730     8B1     0.826179    11B2     0.851004  
      19A1     0.864047     9B1     0.920943    12B2     0.945119  
       4A2     0.951158    20A1     0.962362    21A1     0.998112  
      10B1     1.000142    13B2     1.014868    22A1     1.067207  
      14B2     1.067825    11B1     1.171107     5A2     1.200252  
      23A1     1.206120    24A1     1.223942    15B2     1.267644  
      16B2     1.347182    25A1     1.443472     6A2     1.511645  
      12B1     1.582734    26A1     1.759724    27A1     1.839030  
      17B2     1.867192    18B2     1.959363    13B1     1.975301  
      28A1     2.009651    19B2     2.016667     7A2     2.019032  
      14B1     2.042294    29A1     2.046828     8A2     2.083520  
      30A1     2.102082    20B2     2.120604    15B1     2.159924  
      31A1     2.215068    16B1     2.319075    21B2     2.338420  
       9A2     2.347652    32A1     2.367023    33A1     2.425293  
      34A1     2.498650    22B2     2.536052    17B1     2.569004  
      35A1     2.623724    23B2     2.697448    18B1     2.728502  
      36A1     2.873900    24B2     2.885915    10A2     2.894397  
      25B2     3.690179    37A1     3.727965    19B1     4.054985  
      11A2     4.064553    20B1     4.119814    26B2     4.128245  
      38A1     4.202790    21B1     4.238256    27B2     4.296481  
      39A1     4.300392    12A2     4.390253    22B1     4.427364  
      40A1     4.524883    28B2     4.566584    41A1     4.784358  
      29B2     4.886930    13A2     5.147470    30B2     5.216939  
      31B2     5.237216    42A1     5.379805    23B1     5.548373  
      43A1     5.640658    44A1     6.238833    24B1     6.311476  
      32B2     6.314692    14A2     6.391628    45A1     6.405442  
      25B1     6.427861    33B2     6.494536    46A1     6.520817  
      34B2     6.563175    26B1     6.780898    15A2     6.821298  
      47A1     6.823929    27B1     6.942516    48A1     6.982212  
      35B2     6.982432    49A1     7.045353    28B1     7.143395  
      29B1     7.272580    36B2     7.317630    16A2     7.330782  
      17A2     7.356468    50A1     7.411116    51A1     7.565961  
      52A1     7.870089    37B2     7.975665    38B2     8.849585  
      53A1     8.916669    54A1    15.817823  

    Beta Occupied:                                                        

       1A1   -20.655531     2A1   -20.560964     3A1    -1.347951  
       4A1    -1.102027     1B2    -0.699040     5A1    -0.595242  
       6A1    -0.539781     1B1    -0.503577  

    Beta Virtual:                                                         

       2B2     0.032229     7A1     0.037441     2B1     0.046231  
       3B2     0.069116     8A1     0.135968     9A1     0.155443  
       3B1     0.161221     4B2     0.179397    10A1     0.192494  
       4B1     0.225481     5B2     0.227316     6B2     0.265995  
       1A2     0.267162    11A1     0.271372    12A1     0.280567  
       5B1     0.328103    13A1     0.389356     7B2     0.396574  
      14A1     0.458757     8B2     0.476162     9B2     0.630935  
       2A2     0.645042    15A1     0.650015    16A1     0.663646  
       6B1     0.664113    17A1     0.718413     3A2     0.734751  
      10B2     0.766065     7B1     0.769537    18A1     0.793388  
      19A1     0.867963     8B1     0.908173    11B2     0.939219  
       9B1     0.940988     4A2     0.953887    12B2     0.956894  
      20A1     0.964266    21A1     1.003688    13B2     1.037702  
      10B1     1.040287    22A1     1.070026    14B2     1.080761  
      11B1     1.185090     5A2     1.201395    23A1     1.215862  
      24A1     1.262036    15B2     1.267810    16B2     1.365480  
      25A1     1.461244     6A2     1.512016    12B1     1.583210  
      26A1     1.781772    27A1     1.844880    17B2     1.868644  
      18B2     1.972660    13B1     2.012335    28A1     2.037734  
      19B2     2.040497    14B1     2.072142     7A2     2.083760  
      29A1     2.106946    20B2     2.180517     8A2     2.188281  
      30A1     2.192625    15B1     2.213505    31A1     2.257799  
      16B1     2.329814     9A2     2.353452    21B2     2.367304  
      32A1     2.373612    33A1     2.438417    34A1     2.500891  
      22B2     2.544355    17B1     2.573807    35A1     2.629099  
      23B2     2.698481    18B1     2.728711    36A1     2.874808  
      24B2     2.887102    10A2     2.894485    25B2     3.691147  
      37A1     3.728784    11A2     4.064702    19B1     4.112719  
      38A1     4.203553    20B1     4.221933    21B1     4.249383  
      26B2     4.292518    27B2     4.297541    39A1     4.320181  
      12A2     4.390326    22B1     4.428315    40A1     4.551522  
      28B2     4.568638    41A1     4.785488    29B2     4.887754  
      13A2     5.147530    30B2     5.216995    31B2     5.237449  
      42A1     5.380266    23B1     5.548391    43A1     5.640957  
      44A1     6.245553    24B1     6.420013    32B2     6.422773  
      14A2     6.468042    45A1     6.477700    25B1     6.481705  
      33B2     6.503539    46A1     6.565528    34B2     6.611133  
      26B1     6.788512    47A1     6.984507    15A2     7.009627  
      48A1     7.017408    27B1     7.047595    35B2     7.090920  
      49A1     7.119970    28B1     7.144901    29B1     7.272741  
      36B2     7.318087    16A2     7.330904    17A2     7.356639  
      50A1     7.412075    51A1     7.567583    52A1     7.870316  
      37B2     7.975692    38B2     8.849431    53A1     8.996585  
      54A1    15.817839  

    Final Occupation by Irrep:
             A1    A2    B1    B2 
    DOCC [     6,    0,    1,    1 ]
    SOCC [     0,    0,    1,    1 ]

  @UHF Final Energy:  -150.87148117951352

   => Energetics <=

    Nuclear Repulsion Energy =             23.6845562805473975
    One-Electron Energy =                -255.1254166956385347
    Two-Electron Energy =                  80.5693792355776139
    Total Energy =                       -150.8714811795135233

  UHF NO Occupations:
  HONO-2 :    6 A1 1.9970843
  HONO-1 :    2 B1 1.0000000
  HONO-0 :    2 B2 1.0000000
  LUNO+0 :    7 A1 0.0029157
  LUNO+1 :    8 A1 0.0016077
  LUNO+2 :    9 A1 0.0000024
  LUNO+3 :   10 A1 0.0000020


Computation Completed


Properties will be evaluated at   0.000000,   0.000000,   0.000000 [a0]

Properties computed using the SCF density matrix

  Nuclear Dipole Moment: [e a0]
     X:     0.0000      Y:     0.0000      Z:    -1.5849

  Electronic Dipole Moment: [e a0]
     X:     0.0000      Y:     0.0000      Z:     2.4627

  Dipole Moment: [e a0]
     X:     0.0000      Y:     0.0000      Z:     0.8778     Total:     0.8778

  Dipole Moment: [D]
     X:     0.0000      Y:     0.0000      Z:     2.2311     Total:     2.2311


*** tstop() called on b1-8.compute.lan at Wed Mar 10 09:27:52 2021
Module time:
	user time   =      35.17 seconds =       0.59 minutes
	system time =       0.93 seconds =       0.02 minutes
	total time  =          4 seconds =       0.07 minutes
Total time:
	user time   =      35.17 seconds =       0.59 minutes
	system time =       0.93 seconds =       0.02 minutes
	total time  =          4 seconds =       0.07 minutes
 MINTS: Wrapper to libmints.
   by Justin Turney

   Calculation information:
      Number of threads:                12
      Number of atoms:                   4
      Number of AO shells:              46
      Number of SO shells:              37
      Number of primitives:             82
      Number of atomic orbitals:       160
      Number of basis functions:       138

      Number of irreps:                  4
      Integral cutoff                 0.00e+00
      Number of functions per irrep: [  54   17   29   38 ]

 OEINTS: Overlap, kinetic, potential, dipole, and quadrupole integrals
         stored in file 35.

      Computing two-electron integrals...done
      Computed 11330557 non-zero two-electron integrals.
        Stored in file 33.


*** tstart() called on b1-8.compute.lan
*** at Wed Mar 10 09:27:54 2021


	Wfn Parameters:
	--------------------
	Wavefunction         = CCSD_T
	Number of irreps     = 4
	Number of MOs        = 138
	Number of active MOs = 136
	AO-Basis             = NONE
	Semicanonical        = false
	Reference            = UHF
	Print Level          = 1

	IRREP	# MOs	# FZDC	# DOCC	# SOCC	# VIRT	# FZVR
	-----	-----	------	------	------	------	------
	 A1	   54	    2	    4	    0	    48	    0
	 A2	   17	    0	    0	    0	    17	    0
	 B1	   29	    0	    1	    1	    27	    0
	 B2	   38	    0	    1	    1	    36	    0
	Transforming integrals...
	IWL integrals will be deleted.
	(OO|OO)...
	Presorting SO-basis two-electron integrals.
	Sorting File: SO Ints (nn|nn) nbuckets = 1
	Transforming the one-electron integrals and constructing Fock matrices
	Starting AA/AB first half-transformation.
	Sorting AA/AB half-transformed integrals.
	Starting BB first half-transformation.
	Sorting BB half-transformed integrals.
	First half integral transformation complete.
	Starting AA second half-transformation.
	Starting AB second half-transformation.
	Starting BB second half-transformation.
	Two-electron integral transformation complete.
	(OO|OV)...
	Starting AA second half-transformation.
	Starting AB second half-transformation.
	Starting BB second half-transformation.
	Two-electron integral transformation complete.
	(OO|VV)...
	Starting AA second half-transformation.
	Starting AB second half-transformation.
	Starting BB second half-transformation.
	Two-electron integral transformation complete.
	(OV|OO)...
	Starting AA/AB first half-transformation.
	Sorting AA/AB half-transformed integrals.
	Starting BB first half-transformation.
	Sorting BB half-transformed integrals.
	First half integral transformation complete.
	Starting AA second half-transformation.
	Starting AB second half-transformation.
	Starting BB second half-transformation.
	Two-electron integral transformation complete.
	(OV|OV)...
	Starting AA second half-transformation.
	Starting AB second half-transformation.
	Starting BB second half-transformation.
	Two-electron integral transformation complete.
	(OV|VV)...
	Starting AA second half-transformation.
	Starting AB second half-transformation.
	Starting BB second half-transformation.
	Two-electron integral transformation complete.
	(VV|OO)...
	Starting AA/AB first half-transformation.
	Sorting AA/AB half-transformed integrals.
	Starting BB first half-transformation.
	Sorting BB half-transformed integrals.
	First half integral transformation complete.
	Starting AA second half-transformation.
	Starting AB second half-transformation.
	Starting BB second half-transformation.
	Two-electron integral transformation complete.
	(VV|OV)...
	Starting AA second half-transformation.
	Starting AB second half-transformation.
	Starting BB second half-transformation.
	Two-electron integral transformation complete.
	(VV|VV)...
	Starting AA second half-transformation.
	Starting AB second half-transformation.
	Starting BB second half-transformation.
	Two-electron integral transformation complete.
	Frozen core energy     =   -126.13407419471324

	Size of irrep 0 of <AB|CD> integrals:      5.040 (MW) /     40.320 (MB)
	Size of irrep 1 of <AB|CD> integrals:      3.197 (MW) /     25.576 (MB)
	Size of irrep 2 of <AB|CD> integrals:      3.640 (MW) /     29.124 (MB)
	Size of irrep 3 of <AB|CD> integrals:      4.783 (MW) /     38.264 (MB)
	Total:                                    16.660 (MW) /    133.283 (MB)

	Size of irrep 0 of <ab|cd> integrals:      5.327 (MW) /     42.615 (MB)
	Size of irrep 1 of <ab|cd> integrals:      3.430 (MW) /     27.439 (MB)
	Size of irrep 2 of <ab|cd> integrals:      3.893 (MW) /     31.142 (MB)
	Size of irrep 3 of <ab|cd> integrals:      5.072 (MW) /     40.572 (MB)
	Total:                                    17.721 (MW) /    141.768 (MB)

	Size of irrep 0 of <Ab|Cd> integrals:     21.912 (MW) /    175.294 (MB)
	Size of irrep 1 of <Ab|Cd> integrals:     13.242 (MW) /    105.939 (MB)
	Size of irrep 2 of <Ab|Cd> integrals:     15.062 (MW) /    120.497 (MB)
	Size of irrep 3 of <Ab|Cd> integrals:     19.705 (MW) /    157.638 (MB)
	Total:                                    69.921 (MW) /    559.368 (MB)

	Size of irrep 0 of <IA|BC> integrals:      1.469 (MW) /     11.748 (MB)
	Size of irrep 1 of <IA|BC> integrals:      0.694 (MW) /      5.550 (MB)
	Size of irrep 2 of <IA|BC> integrals:      0.908 (MW) /      7.266 (MB)
	Size of irrep 3 of <IA|BC> integrals:      1.198 (MW) /      9.588 (MB)
	Total:                                     4.269 (MW) /     34.152 (MB)

	Size of irrep 0 of <ia|bc> integrals:      1.220 (MW) /      9.758 (MB)
	Size of irrep 1 of <ia|bc> integrals:      0.493 (MW) /      3.941 (MB)
	Size of irrep 2 of <ia|bc> integrals:      0.698 (MW) /      5.588 (MB)
	Size of irrep 3 of <ia|bc> integrals:      0.959 (MW) /      7.675 (MB)
	Total:                                     3.370 (MW) /     26.961 (MB)

	Size of irrep 0 of <Ia|Bc> integrals:      1.507 (MW) /     12.058 (MB)
	Size of irrep 1 of <Ia|Bc> integrals:      0.721 (MW) /      5.764 (MB)
	Size of irrep 2 of <Ia|Bc> integrals:      0.939 (MW) /      7.514 (MB)
	Size of irrep 3 of <Ia|Bc> integrals:      1.234 (MW) /      9.872 (MB)
	Total:                                     4.401 (MW) /     35.208 (MB)

	Size of irrep 0 of <iA|bC> integrals:      1.194 (MW) /      9.549 (MB)
	Size of irrep 1 of <iA|bC> integrals:      0.477 (MW) /      3.814 (MB)
	Size of irrep 2 of <iA|bC> integrals:      0.671 (MW) /      5.371 (MB)
	Size of irrep 3 of <iA|bC> integrals:      0.928 (MW) /      7.422 (MB)
	Total:                                     3.270 (MW) /     26.156 (MB)

	Size of irrep 0 of tIjAb amplitudes:       0.094 (MW) /      0.749 (MB)
	Size of irrep 1 of tIjAb amplitudes:       0.015 (MW) /      0.116 (MB)
	Size of irrep 2 of tIjAb amplitudes:       0.047 (MW) /      0.373 (MB)
	Size of irrep 3 of tIjAb amplitudes:       0.053 (MW) /      0.426 (MB)
	Total:                                     0.208 (MW) /      1.664 (MB)

	Nuclear Rep. energy          =     23.68455628054740
	SCF energy                   =   -150.87148117951352
	One-electron energy          =    -85.36865127221662
	Two-electron (AA) energy     =     10.28822381750156
	Two-electron (BB) energy     =      5.47199384234417
	Two-electron (AB) energy     =     21.18647034702040
	Two-electron energy          =     36.94668800686613
	Reference energy             =   -150.87148117951634

*** tstop() called on b1-8.compute.lan at Wed Mar 10 09:28:15 2021
Module time:
	user time   =     157.34 seconds =       2.62 minutes
	system time =       7.72 seconds =       0.13 minutes
	total time  =         21 seconds =       0.35 minutes
Total time:
	user time   =     197.81 seconds =       3.30 minutes
	system time =       8.97 seconds =       0.15 minutes
	total time  =         27 seconds =       0.45 minutes
            **************************
            *                        *
            *        CCENERGY        *
            *                        *
            **************************

    Nuclear Rep. energy (wfn)     =   23.684556280547397
    SCF energy          (wfn)     = -150.871481179513523
    Reference energy    (file100) = -150.871481179516337

    Input parameters:
    -----------------
    Wave function   =     CCSD_T
    Reference wfn   =     UHF
    Brueckner       =     No
    Memory (Mbytes) =     4000.0
    Maxiter         =     50
    R_Convergence   =     1.0e-10
    E_Convergence   =     1.0e-10
    Restart         =     Yes
    DIIS            =     Yes
    AO Basis        =     NONE
    ABCD            =     NEW
    Cache Level     =     2
    Cache Type      =     LRU
    Print Level     =     1
    Num. of threads =     12
    # Amps to Print =     10
    Print MP2 Amps? =     No
    Analyze T2 Amps =     No
    Print Pair Ener =     No
    Local CC        =     No
    SCS-MP2         =     False
    SCSN-MP2        =     False
    SCS-CCSD        =     False

MP2 correlation energy -0.4166410809018132
                Solving CC Amplitude Equations
                ------------------------------
  Iter             Energy              RMS        T1Diag      D1Diag    New D1Diag    D2Diag
  ----     ---------------------    ---------   ----------  ----------  ----------   --------
     0        -0.416641080901813    0.000e+00    0.000000    0.000000    0.000000    0.000000
     1        -0.427461773416968    5.665e-02    0.010479    0.000000    0.000000    0.000000
     2        -0.435601642458787    1.682e-02    0.011028    0.000000    0.000000    0.000000
     3        -0.437687695548772    8.584e-03    0.012908    0.000000    0.000000    0.000000
     4        -0.437564125589891    2.532e-03    0.013290    0.000000    0.000000    0.000000
     5        -0.437545717142479    1.393e-03    0.013462    0.000000    0.000000    0.000000
     6        -0.437574241187783    5.405e-04    0.013500    0.000000    0.000000    0.000000
     7        -0.437579306639604    3.037e-04    0.013502    0.000000    0.000000    0.000000
     8        -0.437579730189627    1.022e-04    0.013500    0.000000    0.000000    0.000000
     9        -0.437581138184499    5.648e-05    0.013503    0.000000    0.000000    0.000000
    10        -0.437579278331239    2.826e-05    0.013505    0.000000    0.000000    0.000000
    11        -0.437579497883946    1.474e-05    0.013506    0.000000    0.000000    0.000000
    12        -0.437579450179384    5.835e-06    0.013507    0.000000    0.000000    0.000000
    13        -0.437579503090063    2.025e-06    0.013507    0.000000    0.000000    0.000000
    14        -0.437579578772341    8.234e-07    0.013507    0.000000    0.000000    0.000000
    15        -0.437579585322742    2.375e-07    0.013507    0.000000    0.000000    0.000000
    16        -0.437579586407513    1.247e-07    0.013507    0.000000    0.000000    0.000000
    17        -0.437579587708507    4.216e-08    0.013507    0.000000    0.000000    0.000000
    18        -0.437579586934963    2.016e-08    0.013507    0.000000    0.000000    0.000000
    19        -0.437579586703373    6.458e-09    0.013507    0.000000    0.000000    0.000000
    20        -0.437579586771448    3.103e-09    0.013507    0.000000    0.000000    0.000000
    21        -0.437579586785437    1.431e-09    0.013507    0.000000    0.000000    0.000000
    22        -0.437579586791697    6.102e-10    0.013507    0.000000    0.000000    0.000000
    23        -0.437579586798110    2.876e-10    0.013507    0.000000    0.000000    0.000000
    24        -0.437579586794512    1.236e-10    0.013507    0.000000    0.000000    0.000000
    25        -0.437579586792263    4.957e-11    0.013507    0.000000    0.000000    0.000000

    Iterations converged.


    Largest TIA Amplitudes:
              5  67        -0.0143064308
              5  65        -0.0125625571
              2   2         0.0092527621
              2   6        -0.0085818188
              4  65        -0.0083937599
              6  93        -0.0083274672
              5  66        -0.0080254901
              3   1         0.0060290932
              3   6        -0.0059478349
              4  70        -0.0053467086

    Largest Tia Amplitudes:
              4  68        -0.0141315818
              4  65        -0.0131490417
              4  66        -0.0113493776
              2   6        -0.0094896580
              2   2         0.0074352151
              3   1         0.0054552516
              1  24        -0.0052867232
              4  67        -0.0052030275
              1  11        -0.0047836301
              2   5        -0.0046635200

    Largest TIJAB Amplitudes:
      6   4 100  70         0.0157727530
      4   2  70  11         0.0112964070
      6   2 100  11        -0.0103937515
      7   5  50  10        -0.0089815343
      6   4  54  21        -0.0083611610
      6   4  54  22         0.0083228326
      7   3  98   9         0.0081996652
      7   3  97   6        -0.0081715956
      6   4 115  81        -0.0081329805
      6   4 115  70         0.0079597426

    Largest Tijab Amplitudes:
      5   4  50  10        -0.0089428480
      5   2 100   8         0.0085781108
      5   4  53  10        -0.0076666303
      5   4  99  68        -0.0074748526
      5   2  99   6        -0.0073848121
      5   4  99  71        -0.0069515879
      4   2  68   6        -0.0067374912
      3   1  78  65        -0.0066622832
      5   4  99  73        -0.0063517989
      3   1  69  65        -0.0061803471

    Largest TIjAb Amplitudes:
      7   5  97  99        -0.0181525237
      2   3  11  11        -0.0169824827
      6   1  54  65        -0.0169458595
      7   5  98 100        -0.0166771152
      4   1  22  65         0.0143155089
      6   1  49  65         0.0142799323
      4   3  70  11         0.0139235619
      2   1  77  65         0.0134080760
      7   5 103  99        -0.0133627985
      3   2   6   6        -0.0132287732

    SCF energy       (wfn)                    = -150.871481179513523
    Reference energy (file100)                = -150.871481179516337

    Opposite-spin MP2 correlation energy      =   -0.314671414192623
    Same-spin MP2 correlation energy          =   -0.101969666709190
    MP2 correlation energy                    =   -0.416641080901813
      * MP2 total energy                      = -151.288122260418163

    Opposite-spin CCSD correlation energy     =   -0.342300852065995
    Same-spin CCSD correlation energy         =   -0.095278734726269
    CCSD correlation energy                   =   -0.437579586792263
      * CCSD total energy                     = -151.309060766308590

            **************************
            *                        *
            *        CCTRIPLES       *
            *                        *
            **************************


    Wave function   =    CCSD_T
    Reference wfn   =      UHF

    Nuclear Rep. energy (wfn)                =   23.684556280547397
    SCF energy          (wfn)                = -150.871481179513523
    Reference energy    (file100)            = -150.871481179516337
    CCSD energy         (file100)            =   -0.437579586792263
    Total CCSD energy   (file100)            = -151.309060766308590

    Number of ijk index combinations:
    Spin Case AAA:                                  56
    Spin Case BBB:                                  20
    Spin Case AAB:                                 168
    Spin Case ABB:                                 120
    AAA (T) energy                             =   -0.000401274264243
    BBB (T) energy                             =   -0.000203196670522
    AAB (T) energy                             =   -0.006736426910811
    ABB (T) energy                             =   -0.005006728760793
    (T) energy                                   =   -0.012347626606369
      * CCSD(T) total energy                     = -151.321408392914975

Stephenergy -151.32140839291498
    Psi4 stopped on: Wednesday, 10 March 2021 09:29AM
    Psi4 wall time for execution: 0:01:11.99

*** Psi4 exiting successfully. Buy a developer a beer!
