
    -----------------------------------------------------------------------
          Psi4: An Open-Source Ab Initio Electronic Structure Package
                               Psi4 1.3.2 release

                         Git: Rev {HEAD} ecbda83 


    R. M. Parrish, L. A. Burns, D. G. A. Smith, A. C. Simmonett,
    A. E. DePrince III, E. G. Hohenstein, U. Bozkaya, A. Yu. Sokolov,
    R. Di Remigio, R. M. Richard, J. F. Gonthier, A. M. James,
    H. R. McAlexander, A. Kumar, M. Saitow, X. Wang, B. P. Pritchard,
    P. Verma, H. F. Schaefer III, K. Patkowski, R. A. King, E. F. Valeev,
    F. A. Evangelista, J. M. Turney, T. D. Crawford, and C. D. Sherrill,
    J. Chem. Theory Comput. 13(7) pp 3185--3197 (2017).
    (doi: 10.1021/acs.jctc.7b00174)


                         Additional Contributions by
    P. Kraus, H. Kruse, M. H. Lechner, M. C. Schieber, R. A. Shaw,
    A. Alenaizan, R. Galvelis, Z. L. Glick, S. Lehtola, and J. P. Misiewicz

    -----------------------------------------------------------------------


    Psi4 started on: Tuesday, 09 March 2021 03:41PM

    Process ID: 60428
    Host:       d1-14.compute.lan
    PSIDATADIR: /apps/gb/PSI4/1.3.2/share/psi4
    Memory:     500.0 MiB
    Threads:    12
    
  ==> Input File <==

--------------------------------------------------------------------------
memory 4 GB

molecule  {
0 3
O   -1.504254809230   -0.001190138792    0.000000000000 
H   -0.551813587211    0.156583733128    0.000000000000          
H   -1.894722683441    0.877109410284    0.000000000000
O    1.658408835961   -0.063941926639    0.000000000000
}
set {
basis aug-cc-pvtz
reference uhf
e_convergence 10
scf_type pk
freeze_core true
}

set ccenergy {
e_convergence 10
r_convergence 10
}

e = energy('ccsd(t)')

print_out('Stephenergy {}'.format(e))

--------------------------------------------------------------------------

  Memory set to   3.725 GiB by Python driver.

*** tstart() called on d1-14.compute.lan
*** at Tue Mar  9 15:41:03 2021

   => Loading Basis Set <=

    Name: AUG-CC-PVTZ
    Role: ORBITAL
    Keyword: BASIS
    atoms 1, 4 entry O          line   327 file /apps/gb/PSI4/1.3.2/share/psi4/basis/aug-cc-pvtz.gbs 
    atoms 2-3  entry H          line    36 file /apps/gb/PSI4/1.3.2/share/psi4/basis/aug-cc-pvtz.gbs 


         ---------------------------------------------------------
                                   SCF
               by Justin Turney, Rob Parrish, Andy Simmonett
                          and Daniel G. A. Smith
                              UHF Reference
                       12 Threads,   3814 MiB Core
         ---------------------------------------------------------

  ==> Geometry <==

    Molecular point group: cs
    Full point group: Cs

    Geometry (in Angstrom), charge = 0, multiplicity = 3:

       Center              X                  Y                   Z               Mass       
    ------------   -----------------  -----------------  -----------------  -----------------
         O           -1.504254809230    -0.001190138792     0.000000000000    15.994914619570
         H           -0.551813587211     0.156583733128     0.000000000000     1.007825032230
         H           -1.894722683441     0.877109410284     0.000000000000     1.007825032230
         O            1.658408835961    -0.063941926639     0.000000000000    15.994914619570

  Running in cs symmetry.

  Rotational constants: A =     23.27043  B =      0.20009  C =      0.19838 [cm^-1]
  Rotational constants: A = 697629.95412  B =   5998.55401  C =   5947.41531 [MHz]
  Nuclear repulsion =   22.900704155949516

  Charge       = 0
  Multiplicity = 3
  Electrons    = 18
  Nalpha       = 10
  Nbeta        = 8

  ==> Algorithm <==

  SCF Algorithm Type is PK.
  DIIS enabled.
  MOM disabled.
  Fractional occupation disabled.
  Guess Type is SAD.
  Energy threshold   = 1.00e-10
  Density threshold  = 1.00e-08
  Integral threshold = 0.00e+00

  ==> Primary Basis <==

  Basis Set: AUG-CC-PVTZ
    Blend: AUG-CC-PVTZ
    Number of shells: 46
    Number of basis function: 138
    Number of Cartesian functions: 160
    Spherical Harmonics?: true
    Max angular momentum: 3

  ==> Pre-Iterations <==

   -------------------------------------------------------
    Irrep   Nso     Nmo     Nalpha   Nbeta   Ndocc  Nsocc
   -------------------------------------------------------
     A'        92      92       0       0       0       0
     A"        46      46       0       0       0       0
   -------------------------------------------------------
    Total     138     138      10       8       8       2
   -------------------------------------------------------

  ==> Integral Setup <==

  Using in-core PK algorithm.
   Calculation information:
      Number of atoms:                   4
      Number of AO shells:              46
      Number of primitives:             82
      Number of atomic orbitals:       160
      Number of basis functions:       138

      Integral cutoff                 1.00e-12
      Number of threads:                12

  Performing in-core PK
  Using 91996872 doubles for integral storage.
  We computed 901893 shell quartets total.
  Whereas there are 584821 unique shell quartets.
    54.22 percent of shell quartets recomputed by reordering.

  ==> DiskJK: Disk-Based J/K Matrices <==

    J tasked:                  Yes
    K tasked:                  Yes
    wK tasked:                  No
    Memory [MiB]:             2861
    Schwarz Cutoff:          1E-12

    OpenMP threads:             12

  Minimum eigenvalue in the overlap matrix is 2.9651255127E-04.
  Using Symmetric Orthogonalization.

  SCF Guess: Superposition of Atomic Densities via on-the-fly atomic UHF.

  ==> Iterations <==

                        Total Energy        Delta E     RMS |[F,P]|

   @UHF iter SAD:  -149.39966987887348   -1.49400e+02   0.00000e+00 
   @UHF iter   1:  -150.76355338624899   -1.36388e+00   5.04937e-03 DIIS
   @UHF iter   2:  -150.83777792428577   -7.42245e-02   3.28269e-03 DIIS
   @UHF iter   3:  -150.87302798732213   -3.52501e-02   3.93519e-04 DIIS
   @UHF iter   4:  -150.87414513123002   -1.11714e-03   1.30910e-04 DIIS
   @UHF iter   5:  -150.87427263909390   -1.27508e-04   5.12490e-05 DIIS
   @UHF iter   6:  -150.87430702412388   -3.43850e-05   1.54601e-05 DIIS
   @UHF iter   7:  -150.87431088539583   -3.86127e-06   5.63464e-06 DIIS
   @UHF iter   8:  -150.87431176927390   -8.83878e-07   4.49611e-06 DIIS
   @UHF iter   9:  -150.87431252693432   -7.57660e-07   4.37972e-06 DIIS
   @UHF iter  10:  -150.87431369868108   -1.17175e-06   4.32015e-06 DIIS
   @UHF iter  11:  -150.87432036693454   -6.66825e-06   4.03328e-06 DIIS
   @UHF iter  12:  -150.87433738766748   -1.70207e-05   3.75223e-06 DIIS
   @UHF iter  13:  -150.87433936906930   -1.98140e-06   3.27866e-06 DIIS
   @UHF iter  14:  -150.87435676757960   -1.73985e-05   8.20689e-06 DIIS
   @UHF iter  15:  -150.87435670096843    6.66112e-08   6.31535e-06 DIIS
   @UHF iter  16:  -150.87435845519047   -1.75422e-06   6.40170e-06 DIIS
   @UHF iter  17:  -150.87435866702225   -2.11832e-07   2.78240e-06 DIIS
   @UHF iter  18:  -150.87435875062204   -8.35998e-08   1.27614e-06 DIIS
   @UHF iter  19:  -150.87435876309536   -1.24733e-08   1.86550e-07 DIIS
   @UHF iter  20:  -150.87435876311156   -1.62004e-11   1.85550e-07 DIIS
   @UHF iter  21:  -150.87435876330090   -1.89345e-10   6.01877e-09 DIIS
   @UHF iter  22:  -150.87435876330224   -1.33582e-12   1.06578e-09 DIIS
  Energy and wave function converged.


  ==> Post-Iterations <==

   @Spin Contamination Metric:   9.376135329E-03
   @S^2 Expected:                2.000000000E+00
   @S^2 Observed:                2.009376135E+00
   @S   Expected:                1.000000000E+00
   @S   Observed:                1.000000000E+00

    Orbital Energies [Eh]
    ---------------------

    Alpha Occupied:                                                       

       1Ap   -20.733169     2Ap   -20.558883     3Ap    -1.442502  
       4Ap    -1.342245     5Ap    -0.733262     1App   -0.732890  
       6Ap    -0.709714     7Ap    -0.634533     8Ap    -0.574563  
       2App   -0.501738  

    Alpha Virtual:                                                        

       9Ap     0.034217    10Ap     0.053468    11Ap     0.128179  
       3App    0.132929    12Ap     0.148126    13Ap     0.160765  
      14Ap     0.183954     4App    0.186864    15Ap     0.214135  
      16Ap     0.241889    17Ap     0.264331     5App    0.286507  
      18Ap     0.303960     6App    0.320610    19Ap     0.363960  
      20Ap     0.406306    21Ap     0.460560    22Ap     0.568717  
       7App    0.602547    23Ap     0.608599    24Ap     0.626980  
      25Ap     0.681653     8App    0.709509    26Ap     0.714738  
       9App    0.736720    10App    0.748912    27Ap     0.750669  
      28Ap     0.811621    11App    0.826000    29Ap     0.836735  
      12App    0.890821    30Ap     0.892100    31Ap     0.922816  
      32Ap     0.945154    13App    0.947841    33Ap     0.951279  
      14App    0.971835    34Ap     0.978536    35Ap     1.043411  
      36Ap     1.135775    15App    1.153578    37Ap     1.169550  
      38Ap     1.184909    39Ap     1.261419    16App    1.295119  
      40Ap     1.316436    17App    1.527200    41Ap     1.587500  
      18App    1.597462    42Ap     1.716356    43Ap     1.809236  
      44Ap     1.842310    45Ap     1.977376    19App    1.977654  
      46Ap     1.978252    20App    2.013163    47Ap     2.017922  
      21App    2.048579    48Ap     2.061230    22App    2.122968  
      49Ap     2.153078    50Ap     2.175832    23App    2.212930  
      24App    2.303037    51Ap     2.310128    52Ap     2.339299  
      53Ap     2.414914    25App    2.441131    54Ap     2.460084  
      55Ap     2.490438    26App    2.526593    56Ap     2.628642  
      57Ap     2.707744    27App    2.727816    58Ap     2.737226  
      59Ap     2.860330    60Ap     2.932161    28App    2.943367  
      61Ap     3.695843    62Ap     3.890137    29App    4.035036  
      30App    4.062691    63Ap     4.074320    31App    4.176796  
      64Ap     4.208088    65Ap     4.263316    32App    4.302240  
      33App    4.390565    66Ap     4.408855    34App    4.428620  
      67Ap     4.445118    68Ap     4.601437    69Ap     4.778024  
      70Ap     4.955515    35App    5.152498    71Ap     5.167319  
      72Ap     5.297534    73Ap     5.384889    36App    5.521585  
      74Ap     5.689199    75Ap     6.186433    37App    6.312275  
      76Ap     6.312306    38App    6.375518    77Ap     6.378216  
      39App    6.518719    78Ap     6.520529    79Ap     6.559769  
      80Ap     6.637435    40App    6.735510    81Ap     6.814348  
      41App    6.819920    82Ap     6.918916    42App    6.936713  
      83Ap     6.961146    84Ap     7.050920    43App    7.147091  
      44App    7.271441    45App    7.322450    85Ap     7.324783  
      86Ap     7.362115    46App    7.435474    87Ap     7.644133  
      88Ap     7.942730    89Ap     7.958111    90Ap     8.803717  
      91Ap     9.518282    92Ap    16.259005  

    Beta Occupied:                                                        

       1Ap   -20.654381     2Ap   -20.559015     3Ap    -1.342824  
       4Ap    -1.100034     5Ap    -0.708881     6Ap    -0.579670  
       7Ap    -0.541203     1App   -0.501784  

    Beta Virtual:                                                         

       8Ap     0.034372     2App    0.049302     9Ap     0.049554  
      10Ap     0.055168    11Ap     0.143845    12Ap     0.152955  
       3App    0.161280    13Ap     0.178081    14Ap     0.207796  
      15Ap     0.225509     4App    0.227158    16Ap     0.250586  
      17Ap     0.265570     5App    0.286716    18Ap     0.306100  
       6App    0.324367    19Ap     0.367856    20Ap     0.417221  
      21Ap     0.461814    22Ap     0.572295    23Ap     0.627717  
       7App    0.634938    24Ap     0.640386    25Ap     0.686450  
      26Ap     0.715404     8App    0.721541     9App    0.739862  
      10App    0.750659    27Ap     0.767115    28Ap     0.817999  
      29Ap     0.867837    11App    0.869058    30Ap     0.919906  
      12App    0.941812    31Ap     0.941898    13App    0.949909  
      32Ap     0.952624    33Ap     0.970097    34Ap     1.017534  
      14App    1.020212    35Ap     1.045608    15App    1.156721  
      36Ap     1.163802    37Ap     1.172900    38Ap     1.215757  
      39Ap     1.264636    16App    1.305726    40Ap     1.325102  
      17App    1.527934    41Ap     1.589721    18App    1.598888  
      42Ap     1.742634    43Ap     1.814551    44Ap     1.853135  
      45Ap     1.986067    46Ap     2.015616    19App    2.015628  
      20App    2.053887    47Ap     2.065901    21App    2.171324  
      48Ap     2.176153    22App    2.179576    49Ap     2.193913  
      50Ap     2.244716    23App    2.249933    24App    2.306442  
      51Ap     2.315627    52Ap     2.361898    53Ap     2.419247  
      25App    2.443851    54Ap     2.460920    55Ap     2.496767  
      26App    2.535076    56Ap     2.635877    57Ap     2.724753  
      27App    2.729125    58Ap     2.740752    59Ap     2.862159  
      60Ap     2.936533    28App    2.944001    61Ap     3.696545  
      62Ap     3.892521    29App    4.037894    30App    4.145446  
      63Ap     4.193729    64Ap     4.242253    31App    4.262488  
      65Ap     4.275383    32App    4.302293    33App    4.390635  
      66Ap     4.412382    34App    4.429284    67Ap     4.489537  
      68Ap     4.603972    69Ap     4.779697    70Ap     4.957541  
      35App    5.152485    71Ap     5.167631    72Ap     5.297778  
      73Ap     5.386089    36App    5.521645    74Ap     5.689538  
      75Ap     6.187703    76Ap     6.421128    37App    6.421132  
      38App    6.450718    77Ap     6.453435    78Ap     6.535520  
      39App    6.572565    79Ap     6.600648    80Ap     6.682301  
      40App    6.741440    81Ap     6.920719    41App    7.005048  
      82Ap     7.006590    42App    7.045749    83Ap     7.068224  
      84Ap     7.130701    43App    7.149784    44App    7.271711  
      45App    7.323135    85Ap     7.325111    86Ap     7.362858  
      46App    7.435890    87Ap     7.644970    88Ap     7.943452  
      89Ap     7.958733    90Ap     8.805266    91Ap     9.593314  
      92Ap    16.259273  

    Final Occupation by Irrep:
             Ap   App 
    DOCC [     7,    1 ]
    SOCC [     1,    1 ]

  @UHF Final Energy:  -150.87435876330224

   => Energetics <=

    Nuclear Repulsion Energy =             22.9007041559495157
    One-Electron Energy =                -253.5988353590406348
    Two-Electron Energy =                  79.8237724397888826
    Total Energy =                       -150.8743587633022400

  UHF NO Occupations:
  HONO-2 :    7 Ap 1.9970277
  HONO-1 :    8 Ap 1.0000000
  HONO-0 :    2App 1.0000000
  LUNO+0 :    9 Ap 0.0029723
  LUNO+1 :   10 Ap 0.0017167
  LUNO+2 :   11 Ap 0.0000024
  LUNO+3 :   12 Ap 0.0000018


Computation Completed


Properties will be evaluated at   0.000000,   0.000000,   0.000000 [a0]

Properties computed using the SCF density matrix

  Nuclear Dipole Moment: [e a0]
     X:    -2.2928      Y:     0.9687      Z:     0.0000

  Electronic Dipole Moment: [e a0]
     X:     2.7571      Y:    -0.2940      Z:     0.0000

  Dipole Moment: [e a0]
     X:     0.4643      Y:     0.6747      Z:     0.0000     Total:     0.8190

  Dipole Moment: [D]
     X:     1.1800      Y:     1.7150      Z:     0.0000     Total:     2.0817


*** tstop() called on d1-14.compute.lan at Tue Mar  9 15:41:10 2021
Module time:
	user time   =      55.65 seconds =       0.93 minutes
	system time =       4.60 seconds =       0.08 minutes
	total time  =          7 seconds =       0.12 minutes
Total time:
	user time   =      55.65 seconds =       0.93 minutes
	system time =       4.60 seconds =       0.08 minutes
	total time  =          7 seconds =       0.12 minutes
 MINTS: Wrapper to libmints.
   by Justin Turney

   Calculation information:
      Number of threads:                12
      Number of atoms:                   4
      Number of AO shells:              46
      Number of SO shells:              46
      Number of primitives:             82
      Number of atomic orbitals:       160
      Number of basis functions:       138

      Number of irreps:                  2
      Integral cutoff                 0.00e+00
      Number of functions per irrep: [  92   46 ]

 OEINTS: Overlap, kinetic, potential, dipole, and quadrupole integrals
         stored in file 35.

      Computing two-electron integrals...done
      Computed 22918643 non-zero two-electron integrals.
        Stored in file 33.


*** tstart() called on d1-14.compute.lan
*** at Tue Mar  9 15:41:15 2021


	Wfn Parameters:
	--------------------
	Wavefunction         = CCSD_T
	Number of irreps     = 2
	Number of MOs        = 138
	Number of active MOs = 136
	AO-Basis             = NONE
	Semicanonical        = false
	Reference            = UHF
	Print Level          = 1

	IRREP	# MOs	# FZDC	# DOCC	# SOCC	# VIRT	# FZVR
	-----	-----	------	------	------	------	------
	 Ap	   92	    2	    5	    1	    84	    0
	 App	   46	    0	    1	    1	    44	    0
	Transforming integrals...
	IWL integrals will be deleted.
	(OO|OO)...
	Presorting SO-basis two-electron integrals.
	Sorting File: SO Ints (nn|nn) nbuckets = 1
	Transforming the one-electron integrals and constructing Fock matrices
	Starting AA/AB first half-transformation.
	Sorting AA/AB half-transformed integrals.
	Starting BB first half-transformation.
	Sorting BB half-transformed integrals.
	First half integral transformation complete.
	Starting AA second half-transformation.
	Starting AB second half-transformation.
	Starting BB second half-transformation.
	Two-electron integral transformation complete.
	(OO|OV)...
	Starting AA second half-transformation.
	Starting AB second half-transformation.
	Starting BB second half-transformation.
	Two-electron integral transformation complete.
	(OO|VV)...
	Starting AA second half-transformation.
	Starting AB second half-transformation.
	Starting BB second half-transformation.
	Two-electron integral transformation complete.
	(OV|OO)...
	Starting AA/AB first half-transformation.
	Sorting AA/AB half-transformed integrals.
	Starting BB first half-transformation.
	Sorting BB half-transformed integrals.
	First half integral transformation complete.
	Starting AA second half-transformation.
	Starting AB second half-transformation.
	Starting BB second half-transformation.
	Two-electron integral transformation complete.
	(OV|OV)...
	Starting AA second half-transformation.
	Starting AB second half-transformation.
	Starting BB second half-transformation.
	Two-electron integral transformation complete.
	(OV|VV)...
	Starting AA second half-transformation.
	Starting AB second half-transformation.
	Starting BB second half-transformation.
	Two-electron integral transformation complete.
	(VV|OO)...
	Starting AA/AB first half-transformation.
	Sorting AA/AB half-transformed integrals.
	Starting BB first half-transformation.
	Sorting BB half-transformed integrals.
	First half integral transformation complete.
	Starting AA second half-transformation.
	Starting AB second half-transformation.
	Starting BB second half-transformation.
	Two-electron integral transformation complete.
	(VV|OV)...
	Starting AA second half-transformation.
	Starting AB second half-transformation.
	Starting BB second half-transformation.
	Two-electron integral transformation complete.
	(VV|VV)...
	Starting AA second half-transformation.
	Starting AB second half-transformation.
	Starting BB second half-transformation.
	Two-electron integral transformation complete.
	Frozen core energy     =   -125.85677230336738

	Size of irrep 0 of <AB|CD> integrals:     19.643 (MW) /    157.141 (MB)
	Size of irrep 1 of <AB|CD> integrals:     13.660 (MW) /    109.283 (MB)
	Total:                                    33.303 (MW) /    266.424 (MB)

	Size of irrep 0 of <ab|cd> integrals:     20.794 (MW) /    166.349 (MB)
	Size of irrep 1 of <ab|cd> integrals:     14.631 (MW) /    117.045 (MB)
	Total:                                    35.424 (MW) /    283.394 (MB)

	Size of irrep 0 of <Ab|Cd> integrals:     83.174 (MW) /    665.395 (MB)
	Size of irrep 1 of <Ab|Cd> integrals:     56.550 (MW) /    452.403 (MB)
	Total:                                   139.725 (MW) /   1117.798 (MB)

	Size of irrep 0 of <IA|BC> integrals:      5.323 (MW) /     42.586 (MB)
	Size of irrep 1 of <IA|BC> integrals:      3.193 (MW) /     25.547 (MB)
	Total:                                     8.517 (MW) /     68.133 (MB)

	Size of irrep 0 of <ia|bc> integrals:      4.348 (MW) /     34.780 (MB)
	Size of irrep 1 of <ia|bc> integrals:      2.372 (MW) /     18.972 (MB)
	Total:                                     6.719 (MW) /     53.752 (MB)

	Size of irrep 0 of <Ia|Bc> integrals:      5.472 (MW) /     43.776 (MB)
	Size of irrep 1 of <Ia|Bc> integrals:      3.309 (MW) /     26.470 (MB)
	Total:                                     8.781 (MW) /     70.246 (MB)

	Size of irrep 0 of <iA|bC> integrals:      4.232 (MW) /     33.853 (MB)
	Size of irrep 1 of <iA|bC> integrals:      2.286 (MW) /     18.289 (MB)
	Total:                                     6.518 (MW) /     52.142 (MB)

	Size of irrep 0 of tIjAb amplitudes:       0.292 (MW) /      2.335 (MB)
	Size of irrep 1 of tIjAb amplitudes:       0.120 (MW) /      0.963 (MB)
	Total:                                     0.412 (MW) /      3.297 (MB)

	Nuclear Rep. energy          =     22.90070415594952
	SCF energy                   =   -150.87435876330224
	One-electron energy          =    -84.39073885688876
	Two-electron (AA) energy     =     10.13609206469005
	Two-electron (BB) energy     =      5.39153407857326
	Two-electron (AB) energy     =     20.94482209774020
	Two-electron energy          =     36.47244824100351
	Reference energy             =   -150.87435876330312

*** tstop() called on d1-14.compute.lan at Tue Mar  9 15:42:32 2021
Module time:
	user time   =     423.59 seconds =       7.06 minutes
	system time =      73.68 seconds =       1.23 minutes
	total time  =         77 seconds =       1.28 minutes
Total time:
	user time   =     485.72 seconds =       8.10 minutes
	system time =      79.21 seconds =       1.32 minutes
	total time  =         89 seconds =       1.48 minutes
            **************************
            *                        *
            *        CCENERGY        *
            *                        *
            **************************

    Nuclear Rep. energy (wfn)     =   22.900704155949516
    SCF energy          (wfn)     = -150.874358763302240
    Reference energy    (file100) = -150.874358763303121

    Input parameters:
    -----------------
    Wave function   =     CCSD_T
    Reference wfn   =     UHF
    Brueckner       =     No
    Memory (Mbytes) =     4000.0
    Maxiter         =     50
    R_Convergence   =     1.0e-10
    E_Convergence   =     1.0e-10
    Restart         =     Yes
    DIIS            =     Yes
    AO Basis        =     NONE
    ABCD            =     NEW
    Cache Level     =     2
    Cache Type      =     LRU
    Print Level     =     1
    Num. of threads =     12
    # Amps to Print =     10
    Print MP2 Amps? =     No
    Analyze T2 Amps =     No
    Print Pair Ener =     No
    Local CC        =     No
    SCS-MP2         =     False
    SCSN-MP2        =     False
    SCS-CCSD        =     False

MP2 correlation energy -0.4167206646141762
                Solving CC Amplitude Equations
                ------------------------------
  Iter             Energy              RMS        T1Diag      D1Diag    New D1Diag    D2Diag
  ----     ---------------------    ---------   ----------  ----------  ----------   --------
     0        -0.416720664614176    0.000e+00    0.000000    0.000000    0.000000    0.000000
     1        -0.427408062387686    5.697e-02    0.010571    0.000000    0.000000    0.000000
     2        -0.435508837318387    1.692e-02    0.011047    0.000000    0.000000    0.000000
     3        -0.437636239193515    8.593e-03    0.012923    0.000000    0.000000    0.000000
     4        -0.437510342609495    2.538e-03    0.013291    0.000000    0.000000    0.000000
     5        -0.437495802908278    1.323e-03    0.013448    0.000000    0.000000    0.000000
     6        -0.437523047852921    5.159e-04    0.013470    0.000000    0.000000    0.000000
     7        -0.437527694842920    2.659e-04    0.013465    0.000000    0.000000    0.000000
     8        -0.437528298299282    9.999e-05    0.013460    0.000000    0.000000    0.000000
     9        -0.437529680366159    7.453e-05    0.013461    0.000000    0.000000    0.000000
    10        -0.437528108440317    6.426e-05    0.013462    0.000000    0.000000    0.000000
    11        -0.437528257298122    6.135e-05    0.013464    0.000000    0.000000    0.000000
    12        -0.437527969963263    5.963e-05    0.013466    0.000000    0.000000    0.000000
    13        -0.437527965102789    5.849e-05    0.013469    0.000000    0.000000    0.000000
    14        -0.437529139502526    5.663e-05    0.013487    0.000000    0.000000    0.000000
    15        -0.437529516889204    5.014e-05    0.013559    0.000000    0.000000    0.000000
    16        -0.437529290636482    3.354e-05    0.013698    0.000000    0.000000    0.000000
    17        -0.437528943932165    1.619e-05    0.013766    0.000000    0.000000    0.000000
    18        -0.437528812198604    7.600e-06    0.013784    0.000000    0.000000    0.000000
    19        -0.437529071313168    3.360e-06    0.013788    0.000000    0.000000    0.000000
    20        -0.437529183257151    1.505e-06    0.013789    0.000000    0.000000    0.000000
    21        -0.437529191265399    5.938e-07    0.013789    0.000000    0.000000    0.000000
    22        -0.437529192641931    2.824e-07    0.013789    0.000000    0.000000    0.000000
    23        -0.437529191541856    1.468e-07    0.013789    0.000000    0.000000    0.000000
    24        -0.437529190851320    6.101e-08    0.013789    0.000000    0.000000    0.000000
    25        -0.437529191821438    3.332e-08    0.013789    0.000000    0.000000    0.000000
    26        -0.437529192282279    2.587e-08    0.013789    0.000000    0.000000    0.000000
    27        -0.437529192440570    2.424e-08    0.013789    0.000000    0.000000    0.000000
    28        -0.437529192388333    2.350e-08    0.013789    0.000000    0.000000    0.000000
    29        -0.437529192223478    2.283e-08    0.013789    0.000000    0.000000    0.000000
    30        -0.437529191953842    2.176e-08    0.013789    0.000000    0.000000    0.000000
    31        -0.437529192148375    1.849e-08    0.013789    0.000000    0.000000    0.000000
    32        -0.437529192496552    9.774e-09    0.013789    0.000000    0.000000    0.000000
    33        -0.437529192601164    4.278e-09    0.013789    0.000000    0.000000    0.000000
    34        -0.437529192655170    1.748e-09    0.013789    0.000000    0.000000    0.000000
    35        -0.437529192662186    6.830e-10    0.013789    0.000000    0.000000    0.000000
    36        -0.437529192662034    2.923e-10    0.013789    0.000000    0.000000    0.000000
    37        -0.437529192659924    1.248e-10    0.013789    0.000000    0.000000    0.000000
    38        -0.437529192661429    5.937e-11    0.013789    0.000000    0.000000    0.000000

    Iterations converged.


    Largest TIA Amplitudes:
              7  87        -0.0122088091
              7  84        -0.0116490958
              7  85        -0.0094985901
              4   3         0.0090216468
              6  84        -0.0080708045
              5   9        -0.0076733681
              4  10         0.0070636746
              5   2        -0.0069922982
              2   2         0.0069024533
              7  86        -0.0063040579

    Largest Tia Amplitudes:
              5  86        -0.0123378519
              5  89        -0.0117873855
              5  85        -0.0099023506
              4   1        -0.0097462278
              3   3         0.0090009911
              3  10        -0.0070663907
              5  88        -0.0064997265
              5  87        -0.0060581249
              3  11         0.0058653213
              4   7        -0.0056931584

    Largest TIJAB Amplitudes:
      6   2  92  20        -0.0108566441
      6   2 101  38        -0.0098056615
      6   4  92  29        -0.0096474708
      6   2  92  21        -0.0088690768
      4   2  29  20        -0.0083467341
      4   2  41  40         0.0082812018
      6   2 102  38         0.0076247025
      4   2  29  21        -0.0074150549
      6   2 111  54        -0.0073222789
      6   2  88  38         0.0072797108

    Largest Tijab Amplitudes:
      4   1  42   1         0.0070376929
      4   1  91  85        -0.0067732869
      4   1  19   1         0.0063934497
      4   1 106  85        -0.0062908870
      5   2  94  13         0.0062486715
      5   2  89  13         0.0058825636
      5   2 100  17         0.0058099865
      5   2  92  17        -0.0057992241
      5   2  86  13         0.0057330913
      3   2  18  15        -0.0054100295

    Largest TIjAb Amplitudes:
      3   2  12  13         0.0182954452
      2   1  38   1        -0.0170482982
      6   1  38  85        -0.0165624295
      4   4  29  30         0.0163351466
      4   1 103  85        -0.0151518833
      2   1 101  85         0.0146884343
      4   1  41   1        -0.0144378549
      6   1 101   1        -0.0144055828
      2   1  88  85        -0.0143931311
      6   1  88   1         0.0141344618

    SCF energy       (wfn)                    = -150.874358763302240
    Reference energy (file100)                = -150.874358763303121

    Opposite-spin MP2 correlation energy      =   -0.314715386565706
    Same-spin MP2 correlation energy          =   -0.102005278048470
    MP2 correlation energy                    =   -0.416720664614176
      * MP2 total energy                      = -151.291079427917310

    Opposite-spin CCSD correlation energy     =   -0.342262678227303
    Same-spin CCSD correlation energy         =   -0.095266514434126
    CCSD correlation energy                   =   -0.437529192661429
      * CCSD total energy                     = -151.311887955964551

            **************************
            *                        *
            *        CCTRIPLES       *
            *                        *
            **************************


    Wave function   =    CCSD_T
    Reference wfn   =      UHF

    Nuclear Rep. energy (wfn)                =   22.900704155949516
    SCF energy          (wfn)                = -150.874358763302240
    Reference energy    (file100)            = -150.874358763303121
    CCSD energy         (file100)            =   -0.437529192661429
    Total CCSD energy   (file100)            = -151.311887955964551

    Number of ijk index combinations:
    Spin Case AAA:                                  56
    Spin Case BBB:                                  20
    Spin Case AAB:                                 168
    Spin Case ABB:                                 120
    AAA (T) energy                             =   -0.000399747910626
    BBB (T) energy                             =   -0.000202835208381
    AAB (T) energy                             =   -0.006750428989463
    ABB (T) energy                             =   -0.005016632399827
    (T) energy                                   =   -0.012369644508296
      * CCSD(T) total energy                     = -151.324257600472833

Stephenergy -151.32425760047283
    Psi4 stopped on: Tuesday, 09 March 2021 03:45PM
    Psi4 wall time for execution: 0:04:56.96

*** Psi4 exiting successfully. Buy a developer a beer!
