
    -----------------------------------------------------------------------
          Psi4: An Open-Source Ab Initio Electronic Structure Package
                               Psi4 1.3.2 release

                         Git: Rev {HEAD} ecbda83 


    R. M. Parrish, L. A. Burns, D. G. A. Smith, A. C. Simmonett,
    A. E. DePrince III, E. G. Hohenstein, U. Bozkaya, A. Yu. Sokolov,
    R. Di Remigio, R. M. Richard, J. F. Gonthier, A. M. James,
    H. R. McAlexander, A. Kumar, M. Saitow, X. Wang, B. P. Pritchard,
    P. Verma, H. F. Schaefer III, K. Patkowski, R. A. King, E. F. Valeev,
    F. A. Evangelista, J. M. Turney, T. D. Crawford, and C. D. Sherrill,
    J. Chem. Theory Comput. 13(7) pp 3185--3197 (2017).
    (doi: 10.1021/acs.jctc.7b00174)


                         Additional Contributions by
    P. Kraus, H. Kruse, M. H. Lechner, M. C. Schieber, R. A. Shaw,
    A. Alenaizan, R. Galvelis, Z. L. Glick, S. Lehtola, and J. P. Misiewicz

    -----------------------------------------------------------------------


    Psi4 started on: Tuesday, 09 March 2021 03:24PM

    Process ID: 2484
    Host:       c4-4.compute.lan
    PSIDATADIR: /apps/gb/PSI4/1.3.2/share/psi4
    Memory:     500.0 MiB
    Threads:    12
    
  ==> Input File <==

--------------------------------------------------------------------------
memory 4 GB

molecule  {
0 3
O   -1.496507563314   -0.005059940085    0.000000000000 
H   -0.544027786966    0.144432320906    0.000000000000          
H   -1.875578125991    0.880188371098    0.000000000000
O    1.648964732683   -0.059500478429    0.000000000000
}
set {
basis aug-cc-pvtz
reference uhf
e_convergence 10
scf_type pk
freeze_core true
}

set ccenergy {
e_convergence 10
r_convergence 10
}

e = energy('ccsd(t)')

print_out('Stephenergy {}'.format(e))

--------------------------------------------------------------------------

  Memory set to   3.725 GiB by Python driver.

*** tstart() called on c4-4.compute.lan
*** at Tue Mar  9 15:24:31 2021

   => Loading Basis Set <=

    Name: AUG-CC-PVTZ
    Role: ORBITAL
    Keyword: BASIS
    atoms 1, 4 entry O          line   327 file /apps/gb/PSI4/1.3.2/share/psi4/basis/aug-cc-pvtz.gbs 
    atoms 2-3  entry H          line    36 file /apps/gb/PSI4/1.3.2/share/psi4/basis/aug-cc-pvtz.gbs 


         ---------------------------------------------------------
                                   SCF
               by Justin Turney, Rob Parrish, Andy Simmonett
                          and Daniel G. A. Smith
                              UHF Reference
                       12 Threads,   3814 MiB Core
         ---------------------------------------------------------

  ==> Geometry <==

    Molecular point group: cs
    Full point group: Cs

    Geometry (in Angstrom), charge = 0, multiplicity = 3:

       Center              X                  Y                   Z               Mass       
    ------------   -----------------  -----------------  -----------------  -----------------
         O           -1.496507563314    -0.005059940085     0.000000000000    15.994914619570
         H           -0.544027786966     0.144432320906     0.000000000000     1.007825032230
         H           -1.875578125991     0.880188371098     0.000000000000     1.007825032230
         O            1.648964732683    -0.059500478429     0.000000000000    15.994914619570

  Running in cs symmetry.

  Rotational constants: A =     22.92626  B =      0.20242  C =      0.20065 [cm^-1]
  Rotational constants: A = 687311.91536  B =   6068.44244  C =   6015.33163 [MHz]
  Nuclear repulsion =   22.982937787155837

  Charge       = 0
  Multiplicity = 3
  Electrons    = 18
  Nalpha       = 10
  Nbeta        = 8

  ==> Algorithm <==

  SCF Algorithm Type is PK.
  DIIS enabled.
  MOM disabled.
  Fractional occupation disabled.
  Guess Type is SAD.
  Energy threshold   = 1.00e-10
  Density threshold  = 1.00e-08
  Integral threshold = 0.00e+00

  ==> Primary Basis <==

  Basis Set: AUG-CC-PVTZ
    Blend: AUG-CC-PVTZ
    Number of shells: 46
    Number of basis function: 138
    Number of Cartesian functions: 160
    Spherical Harmonics?: true
    Max angular momentum: 3

  ==> Pre-Iterations <==

   -------------------------------------------------------
    Irrep   Nso     Nmo     Nalpha   Nbeta   Ndocc  Nsocc
   -------------------------------------------------------
     A'        92      92       0       0       0       0
     A"        46      46       0       0       0       0
   -------------------------------------------------------
    Total     138     138      10       8       8       2
   -------------------------------------------------------

  ==> Integral Setup <==

  Using in-core PK algorithm.
   Calculation information:
      Number of atoms:                   4
      Number of AO shells:              46
      Number of primitives:             82
      Number of atomic orbitals:       160
      Number of basis functions:       138

      Integral cutoff                 1.00e-12
      Number of threads:                12

  Performing in-core PK
  Using 91996872 doubles for integral storage.
  We computed 903695 shell quartets total.
  Whereas there are 584821 unique shell quartets.
    54.53 percent of shell quartets recomputed by reordering.

  ==> DiskJK: Disk-Based J/K Matrices <==

    J tasked:                  Yes
    K tasked:                  Yes
    wK tasked:                  No
    Memory [MiB]:             2861
    Schwarz Cutoff:          1E-12

    OpenMP threads:             12

  Minimum eigenvalue in the overlap matrix is 2.9451100891E-04.
  Using Symmetric Orthogonalization.

  SCF Guess: Superposition of Atomic Densities via on-the-fly atomic UHF.

  ==> Iterations <==

                        Total Energy        Delta E     RMS |[F,P]|

   @UHF iter SAD:  -149.40112979546780   -1.49401e+02   0.00000e+00 
   @UHF iter   1:  -150.76305035206619   -1.36192e+00   5.05587e-03 DIIS
   @UHF iter   2:  -150.83752461560766   -7.44743e-02   3.28927e-03 DIIS
   @UHF iter   3:  -150.87292923510358   -3.54046e-02   3.94109e-04 DIIS
   @UHF iter   4:  -150.87404759049761   -1.11836e-03   1.31063e-04 DIIS
   @UHF iter   5:  -150.87417508923869   -1.27499e-04   5.12351e-05 DIIS
   @UHF iter   6:  -150.87420941869607   -3.43295e-05   1.54406e-05 DIIS
   @UHF iter   7:  -150.87421325712387   -3.83843e-06   5.58827e-06 DIIS
   @UHF iter   8:  -150.87421412220837   -8.65085e-07   4.43884e-06 DIIS
   @UHF iter   9:  -150.87421486054654   -7.38338e-07   4.32018e-06 DIIS
   @UHF iter  10:  -150.87421599718604   -1.13664e-06   4.26011e-06 DIIS
   @UHF iter  11:  -150.87422219494431   -6.19776e-06   3.98512e-06 DIIS
   @UHF iter  12:  -150.87423824765068   -1.60527e-05   3.63624e-06 DIIS
   @UHF iter  13:  -150.87424087166028   -2.62401e-06   3.15841e-06 DIIS
   @UHF iter  14:  -150.87425712333248   -1.62517e-05   7.36442e-06 DIIS
   @UHF iter  15:  -150.87425708590698    3.74255e-08   5.95549e-06 DIIS
   @UHF iter  16:  -150.87425886759274   -1.78169e-06   6.17845e-06 DIIS
   @UHF iter  17:  -150.87425905281256   -1.85220e-07   2.65905e-06 DIIS
   @UHF iter  18:  -150.87425912931451   -7.65019e-08   1.29170e-06 DIIS
   @UHF iter  19:  -150.87425914095783   -1.16433e-08   2.74585e-07 DIIS
   @UHF iter  20:  -150.87425914119726   -2.39424e-10   1.86995e-07 DIIS
   @UHF iter  21:  -150.87425914139192   -1.94660e-10   5.61907e-09 DIIS
   @UHF iter  22:  -150.87425914139314   -1.22213e-12   1.15957e-09 DIIS
  Energy and wave function converged.


  ==> Post-Iterations <==

   @Spin Contamination Metric:   9.370728051E-03
   @S^2 Expected:                2.000000000E+00
   @S^2 Observed:                2.009370728E+00
   @S   Expected:                1.000000000E+00
   @S   Observed:                1.000000000E+00

    Orbital Energies [Eh]
    ---------------------

    Alpha Occupied:                                                       

       1Ap   -20.733655     2Ap   -20.558751     3Ap    -1.443056  
       4Ap    -1.342073     5Ap    -0.733761     1App   -0.733393  
       6Ap    -0.709080     7Ap    -0.634946     8Ap    -0.574753  
       2App   -0.501555  

    Alpha Virtual:                                                        

       9Ap     0.034253    10Ap     0.053458    11Ap     0.128022  
       3App    0.132772    12Ap     0.148101    13Ap     0.160789  
      14Ap     0.183969     4App    0.187077    15Ap     0.214496  
      16Ap     0.242195    17Ap     0.265151     5App    0.286211  
      18Ap     0.303168     6App    0.321209    19Ap     0.365651  
      20Ap     0.406021    21Ap     0.460483    22Ap     0.568058  
       7App    0.602143    23Ap     0.608665    24Ap     0.628316  
      25Ap     0.679887     8App    0.712009    26Ap     0.714481  
       9App    0.736756    10App    0.748812    27Ap     0.753712  
      28Ap     0.813536    11App    0.825848    29Ap     0.836765  
      12App    0.891070    30Ap     0.891218    31Ap     0.924226  
      32Ap     0.946258    13App    0.947422    33Ap     0.951977  
      14App    0.973675    34Ap     0.978790    35Ap     1.043184  
      36Ap     1.133665    15App    1.156891    37Ap     1.169520  
      38Ap     1.188870    39Ap     1.264039    16App    1.296788  
      40Ap     1.321458    17App    1.527396    41Ap     1.584644  
      18App    1.597718    42Ap     1.717197    43Ap     1.813322  
      44Ap     1.844584    45Ap     1.976467    19App    1.977239  
      46Ap     1.977305    20App    2.013092    47Ap     2.017677  
      21App    2.050436    48Ap     2.062182    22App    2.125495  
      49Ap     2.156253    50Ap     2.178545    23App    2.216766  
      24App    2.303072    51Ap     2.313241    52Ap     2.342197  
      53Ap     2.417334    25App    2.445158    54Ap     2.459796  
      55Ap     2.498159    26App    2.531975    56Ap     2.638555  
      57Ap     2.712073    27App    2.728451    58Ap     2.739420  
      59Ap     2.860595    60Ap     2.931780    28App    2.943505  
      61Ap     3.696300    62Ap     3.896757    29App    4.036916  
      30App    4.062536    63Ap     4.074600    31App    4.178703  
      64Ap     4.206610    65Ap     4.266022    32App    4.298698  
      33App    4.390810    66Ap     4.405209    34App    4.430270  
      67Ap     4.443243    68Ap     4.602263    69Ap     4.779004  
      70Ap     4.958696    35App    5.151195    71Ap     5.171425  
      72Ap     5.295800    73Ap     5.383648    36App    5.522410  
      74Ap     5.686312    75Ap     6.189462    37App    6.311798  
      76Ap     6.311830    38App    6.376147    77Ap     6.378940  
      78Ap     6.523406    39App    6.523578    79Ap     6.561768  
      80Ap     6.642569    40App    6.735635    81Ap     6.814029  
      41App    6.819840    82Ap     6.922806    42App    6.937230  
      83Ap     6.963267    84Ap     7.051526    43App    7.147100  
      44App    7.271734    85Ap     7.320176    45App    7.323604  
      86Ap     7.364639    46App    7.437837    87Ap     7.645282  
      88Ap     7.941980    89Ap     7.960611    90Ap     8.804911  
      91Ap     9.544614    92Ap    16.293406  

    Beta Occupied:                                                        

       1Ap   -20.654867     2Ap   -20.558889     3Ap    -1.342688  
       4Ap    -1.100601     5Ap    -0.708087     6Ap    -0.580247  
       7Ap    -0.541427     1App   -0.501601  

    Beta Virtual:                                                         

       8Ap     0.034366     2App    0.048971     9Ap     0.049169  
      10Ap     0.055232    11Ap     0.143993    12Ap     0.152672  
       3App    0.161283    13Ap     0.178233    14Ap     0.207894  
      15Ap     0.225193     4App    0.226954    16Ap     0.251062  
      17Ap     0.266425     5App    0.286423    18Ap     0.305326  
       6App    0.325212    19Ap     0.369594    20Ap     0.417284  
      21Ap     0.461777    22Ap     0.571722    23Ap     0.628830  
       7App    0.634500    24Ap     0.640625    25Ap     0.684532  
      26Ap     0.715099     8App    0.723849     9App    0.740123  
      10App    0.750556    27Ap     0.771108    28Ap     0.819844  
      29Ap     0.865821    11App    0.869492    30Ap     0.920830  
      12App    0.942468    31Ap     0.943110    13App    0.949500  
      32Ap     0.953365    33Ap     0.969731    34Ap     1.018415  
      14App    1.020951    35Ap     1.046018    15App    1.160184  
      36Ap     1.163869    37Ap     1.174252    38Ap     1.215575  
      39Ap     1.267116    16App    1.307410    40Ap     1.330355  
      17App    1.528121    41Ap     1.587137    18App    1.599243  
      42Ap     1.742694    43Ap     1.819327    44Ap     1.855981  
      45Ap     1.984007    46Ap     2.015202    19App    2.015209  
      20App    2.055575    47Ap     2.066868    21App    2.174649  
      48Ap     2.176233    22App    2.179666    49Ap     2.197008  
      50Ap     2.247831    23App    2.252890    24App    2.306514  
      51Ap     2.319009    52Ap     2.363847    53Ap     2.421454  
      25App    2.447778    54Ap     2.460586    55Ap     2.504528  
      26App    2.540505    56Ap     2.645755    57Ap     2.727077  
      27App    2.729828    58Ap     2.745836    59Ap     2.862483  
      60Ap     2.935951    28App    2.944131    61Ap     3.696987  
      62Ap     3.899383    29App    4.039230    30App    4.146797  
      63Ap     4.189871    64Ap     4.242770    31App    4.263357  
      65Ap     4.279705    32App    4.298745    33App    4.390883  
      66Ap     4.409865    34App    4.430980    67Ap     4.487257  
      68Ap     4.604373    69Ap     4.780492    70Ap     4.960852  
      35App    5.151186    71Ap     5.171799    72Ap     5.296052  
      73Ap     5.384902    36App    5.522489    74Ap     5.686688  
      75Ap     6.190745    76Ap     6.420649    37App    6.420653  
      38App    6.451283    77Ap     6.454068    78Ap     6.535240  
      39App    6.577320    79Ap     6.605870    80Ap     6.687138  
      40App    6.741685    81Ap     6.924717    41App    7.004913  
      82Ap     7.006591    42App    7.046332    83Ap     7.069807  
      84Ap     7.131287    43App    7.149652    44App    7.271980  
      85Ap     7.320535    45App    7.324343    86Ap     7.365285  
      46App    7.438259    87Ap     7.646094    88Ap     7.942874  
      89Ap     7.960991    90Ap     8.806579    91Ap     9.619528  
      92Ap    16.293719  

    Final Occupation by Irrep:
             Ap   App 
    DOCC [     7,    1 ]
    SOCC [     1,    1 ]

  @UHF Final Energy:  -150.87425914139314

   => Energetics <=

    Nuclear Repulsion Energy =             22.9829377871558371
    One-Electron Energy =                -253.7609632496349263
    Two-Electron Energy =                  79.9037663210859535
    Total Energy =                       -150.8742591413931393

  UHF NO Occupations:
  HONO-2 :    7 Ap 1.9970271
  HONO-1 :    2App 1.0000000
  HONO-0 :    8 Ap 1.0000000
  LUNO+0 :    9 Ap 0.0029729
  LUNO+1 :   10 Ap 0.0017132
  LUNO+2 :   11 Ap 0.0000024
  LUNO+3 :   12 Ap 0.0000019


Computation Completed


Properties will be evaluated at   0.000000,   0.000000,   0.000000 [a0]

Properties computed using the SCF density matrix

  Nuclear Dipole Moment: [e a0]
     X:    -2.2676      Y:     0.9602      Z:     0.0000

  Electronic Dipole Moment: [e a0]
     X:     2.7422      Y:    -0.2873      Z:     0.0000

  Dipole Moment: [e a0]
     X:     0.4747      Y:     0.6730      Z:     0.0000     Total:     0.8235

  Dipole Moment: [D]
     X:     1.2065      Y:     1.7105      Z:     0.0000     Total:     2.0932


*** tstop() called on c4-4.compute.lan at Tue Mar  9 15:24:37 2021
Module time:
	user time   =      62.46 seconds =       1.04 minutes
	system time =       1.04 seconds =       0.02 minutes
	total time  =          6 seconds =       0.10 minutes
Total time:
	user time   =      62.46 seconds =       1.04 minutes
	system time =       1.04 seconds =       0.02 minutes
	total time  =          6 seconds =       0.10 minutes
 MINTS: Wrapper to libmints.
   by Justin Turney

   Calculation information:
      Number of threads:                12
      Number of atoms:                   4
      Number of AO shells:              46
      Number of SO shells:              46
      Number of primitives:             82
      Number of atomic orbitals:       160
      Number of basis functions:       138

      Number of irreps:                  2
      Integral cutoff                 0.00e+00
      Number of functions per irrep: [  92   46 ]

 OEINTS: Overlap, kinetic, potential, dipole, and quadrupole integrals
         stored in file 35.

      Computing two-electron integrals...done
      Computed 22935711 non-zero two-electron integrals.
        Stored in file 33.


*** tstart() called on c4-4.compute.lan
*** at Tue Mar  9 15:24:40 2021


	Wfn Parameters:
	--------------------
	Wavefunction         = CCSD_T
	Number of irreps     = 2
	Number of MOs        = 138
	Number of active MOs = 136
	AO-Basis             = NONE
	Semicanonical        = false
	Reference            = UHF
	Print Level          = 1

	IRREP	# MOs	# FZDC	# DOCC	# SOCC	# VIRT	# FZVR
	-----	-----	------	------	------	------	------
	 Ap	   92	    2	    5	    1	    84	    0
	 App	   46	    0	    1	    1	    44	    0
	Transforming integrals...
	IWL integrals will be deleted.
	(OO|OO)...
	Presorting SO-basis two-electron integrals.
	Sorting File: SO Ints (nn|nn) nbuckets = 1
	Transforming the one-electron integrals and constructing Fock matrices
	Starting AA/AB first half-transformation.
	Sorting AA/AB half-transformed integrals.
	Starting BB first half-transformation.
	Sorting BB half-transformed integrals.
	First half integral transformation complete.
	Starting AA second half-transformation.
	Starting AB second half-transformation.
	Starting BB second half-transformation.
	Two-electron integral transformation complete.
	(OO|OV)...
	Starting AA second half-transformation.
	Starting AB second half-transformation.
	Starting BB second half-transformation.
	Two-electron integral transformation complete.
	(OO|VV)...
	Starting AA second half-transformation.
	Starting AB second half-transformation.
	Starting BB second half-transformation.
	Two-electron integral transformation complete.
	(OV|OO)...
	Starting AA/AB first half-transformation.
	Sorting AA/AB half-transformed integrals.
	Starting BB first half-transformation.
	Sorting BB half-transformed integrals.
	First half integral transformation complete.
	Starting AA second half-transformation.
	Starting AB second half-transformation.
	Starting BB second half-transformation.
	Two-electron integral transformation complete.
	(OV|OV)...
	Starting AA second half-transformation.
	Starting AB second half-transformation.
	Starting BB second half-transformation.
	Two-electron integral transformation complete.
	(OV|VV)...
	Starting AA second half-transformation.
	Starting AB second half-transformation.
	Starting BB second half-transformation.
	Two-electron integral transformation complete.
	(VV|OO)...
	Starting AA/AB first half-transformation.
	Sorting AA/AB half-transformed integrals.
	Starting BB first half-transformation.
	Sorting BB half-transformed integrals.
	First half integral transformation complete.
	Starting AA second half-transformation.
	Starting AB second half-transformation.
	Starting BB second half-transformation.
	Two-electron integral transformation complete.
	(VV|OV)...
	Starting AA second half-transformation.
	Starting AB second half-transformation.
	Starting BB second half-transformation.
	Two-electron integral transformation complete.
	(VV|VV)...
	Starting AA second half-transformation.
	Starting AB second half-transformation.
	Starting BB second half-transformation.
	Two-electron integral transformation complete.
	Frozen core energy     =   -125.88824738394706

	Size of irrep 0 of <AB|CD> integrals:     19.643 (MW) /    157.141 (MB)
	Size of irrep 1 of <AB|CD> integrals:     13.660 (MW) /    109.283 (MB)
	Total:                                    33.303 (MW) /    266.424 (MB)

	Size of irrep 0 of <ab|cd> integrals:     20.794 (MW) /    166.349 (MB)
	Size of irrep 1 of <ab|cd> integrals:     14.631 (MW) /    117.045 (MB)
	Total:                                    35.424 (MW) /    283.394 (MB)

	Size of irrep 0 of <Ab|Cd> integrals:     83.174 (MW) /    665.395 (MB)
	Size of irrep 1 of <Ab|Cd> integrals:     56.550 (MW) /    452.403 (MB)
	Total:                                   139.725 (MW) /   1117.798 (MB)

	Size of irrep 0 of <IA|BC> integrals:      5.323 (MW) /     42.586 (MB)
	Size of irrep 1 of <IA|BC> integrals:      3.193 (MW) /     25.547 (MB)
	Total:                                     8.517 (MW) /     68.133 (MB)

	Size of irrep 0 of <ia|bc> integrals:      4.348 (MW) /     34.780 (MB)
	Size of irrep 1 of <ia|bc> integrals:      2.372 (MW) /     18.972 (MB)
	Total:                                     6.719 (MW) /     53.752 (MB)

	Size of irrep 0 of <Ia|Bc> integrals:      5.472 (MW) /     43.776 (MB)
	Size of irrep 1 of <Ia|Bc> integrals:      3.309 (MW) /     26.470 (MB)
	Total:                                     8.781 (MW) /     70.246 (MB)

	Size of irrep 0 of <iA|bC> integrals:      4.232 (MW) /     33.853 (MB)
	Size of irrep 1 of <iA|bC> integrals:      2.286 (MW) /     18.289 (MB)
	Total:                                     6.518 (MW) /     52.142 (MB)

	Size of irrep 0 of tIjAb amplitudes:       0.292 (MW) /      2.335 (MB)
	Size of irrep 1 of tIjAb amplitudes:       0.120 (MW) /      0.963 (MB)
	Total:                                     0.412 (MW) /      3.297 (MB)

	Nuclear Rep. energy          =     22.98293778715584
	SCF energy                   =   -150.87425914139314
	One-electron energy          =    -84.49062997341645
	Two-electron (AA) energy     =     10.15223462830868
	Two-electron (BB) energy     =      5.40001079066916
	Two-electron (AB) energy     =     20.96943500983662
	Two-electron energy          =     36.52168042881446
	Reference energy             =   -150.87425914139322

*** tstop() called on c4-4.compute.lan at Tue Mar  9 15:25:13 2021
Module time:
	user time   =     105.64 seconds =       1.76 minutes
	system time =      18.25 seconds =       0.30 minutes
	total time  =         33 seconds =       0.55 minutes
Total time:
	user time   =     174.21 seconds =       2.90 minutes
	system time =      19.82 seconds =       0.33 minutes
	total time  =         42 seconds =       0.70 minutes
            **************************
            *                        *
            *        CCENERGY        *
            *                        *
            **************************

    Nuclear Rep. energy (wfn)     =   22.982937787155837
    SCF energy          (wfn)     = -150.874259141393139
    Reference energy    (file100) = -150.874259141393225

    Input parameters:
    -----------------
    Wave function   =     CCSD_T
    Reference wfn   =     UHF
    Brueckner       =     No
    Memory (Mbytes) =     4000.0
    Maxiter         =     50
    R_Convergence   =     1.0e-10
    E_Convergence   =     1.0e-10
    Restart         =     Yes
    DIIS            =     Yes
    AO Basis        =     NONE
    ABCD            =     NEW
    Cache Level     =     2
    Cache Type      =     LRU
    Print Level     =     1
    Num. of threads =     12
    # Amps to Print =     10
    Print MP2 Amps? =     No
    Analyze T2 Amps =     No
    Print Pair Ener =     No
    Local CC        =     No
    SCS-MP2         =     False
    SCSN-MP2        =     False
    SCS-CCSD        =     False

MP2 correlation energy -0.4168135124318018
                Solving CC Amplitude Equations
                ------------------------------
  Iter             Energy              RMS        T1Diag      D1Diag    New D1Diag    D2Diag
  ----     ---------------------    ---------   ----------  ----------  ----------   --------
     0        -0.416813512431802    0.000e+00    0.000000    0.000000    0.000000    0.000000
     1        -0.427484436768627    5.701e-02    0.010583    0.000000    0.000000    0.000000
     2        -0.435591313772066    1.693e-02    0.011061    0.000000    0.000000    0.000000
     3        -0.437719767722188    8.607e-03    0.012941    0.000000    0.000000    0.000000
     4        -0.437593964970034    2.541e-03    0.013312    0.000000    0.000000    0.000000
     5        -0.437579031289693    1.331e-03    0.013470    0.000000    0.000000    0.000000
     6        -0.437606447003804    5.183e-04    0.013494    0.000000    0.000000    0.000000
     7        -0.437611160751052    2.710e-04    0.013489    0.000000    0.000000    0.000000
     8        -0.437611743625929    1.022e-04    0.013485    0.000000    0.000000    0.000000
     9        -0.437613146187487    7.596e-05    0.013487    0.000000    0.000000    0.000000
    10        -0.437611522610206    6.492e-05    0.013488    0.000000    0.000000    0.000000
    11        -0.437611684624820    6.168e-05    0.013489    0.000000    0.000000    0.000000
    12        -0.437611406518473    5.985e-05    0.013491    0.000000    0.000000    0.000000
    13        -0.437611411983583    5.873e-05    0.013494    0.000000    0.000000    0.000000
    14        -0.437612588459988    5.693e-05    0.013511    0.000000    0.000000    0.000000
    15        -0.437612974138929    5.052e-05    0.013583    0.000000    0.000000    0.000000
    16        -0.437612739318359    3.374e-05    0.013720    0.000000    0.000000    0.000000
    17        -0.437612383256723    1.624e-05    0.013788    0.000000    0.000000    0.000000
    18        -0.437612243802370    7.626e-06    0.013805    0.000000    0.000000    0.000000
    19        -0.437612500852051    3.385e-06    0.013810    0.000000    0.000000    0.000000
    20        -0.437612613955629    1.519e-06    0.013811    0.000000    0.000000    0.000000
    21        -0.437612622349460    6.090e-07    0.013811    0.000000    0.000000    0.000000
    22        -0.437612624036369    2.964e-07    0.013811    0.000000    0.000000    0.000000
    23        -0.437612622789170    1.557e-07    0.013811    0.000000    0.000000    0.000000
    24        -0.437612621916758    6.542e-08    0.013811    0.000000    0.000000    0.000000
    25        -0.437612622926227    3.584e-08    0.013811    0.000000    0.000000    0.000000
    26        -0.437612623410617    2.810e-08    0.013811    0.000000    0.000000    0.000000
    27        -0.437612623572399    2.646e-08    0.013811    0.000000    0.000000    0.000000
    28        -0.437612623513292    2.574e-08    0.013811    0.000000    0.000000    0.000000
    29        -0.437612623340157    2.512e-08    0.013811    0.000000    0.000000    0.000000
    30        -0.437612623053073    2.416e-08    0.013811    0.000000    0.000000    0.000000
    31        -0.437612623231336    2.114e-08    0.013811    0.000000    0.000000    0.000000
    32        -0.437612623611457    1.174e-08    0.013811    0.000000    0.000000    0.000000
    33        -0.437612623736819    5.217e-09    0.013811    0.000000    0.000000    0.000000
    34        -0.437612623804550    2.121e-09    0.013811    0.000000    0.000000    0.000000
    35        -0.437612623812275    7.801e-10    0.013811    0.000000    0.000000    0.000000
    36        -0.437612623813396    3.332e-10    0.013811    0.000000    0.000000    0.000000
    37        -0.437612623812096    1.417e-10    0.013811    0.000000    0.000000    0.000000
    38        -0.437612623813894    6.434e-11    0.013811    0.000000    0.000000    0.000000

    Iterations converged.


    Largest TIA Amplitudes:
              7  87        -0.0121896785
              7  84        -0.0116742140
              7  85        -0.0094842351
              4   3         0.0090192944
              6  84        -0.0080746781
              5   9        -0.0076378666
              4  10         0.0071835584
              5   2        -0.0069640689
              2   2         0.0069261502
              7  86        -0.0064148703

    Largest Tia Amplitudes:
              5  86        -0.0122440792
              5  89        -0.0117333476
              5  85        -0.0101926141
              4   1        -0.0096650161
              3   3         0.0089538712
              3  10        -0.0069571495
              5  88        -0.0066367031
              5  87        -0.0061939413
              3  11         0.0060554566
              4   7        -0.0055267812

    Largest TIJAB Amplitudes:
      6   2  92  20         0.0105062436
      6   2 101  38        -0.0100507852
      6   4  92  29         0.0094290462
      6   2  92  21        -0.0091823368
      4   2  41  40         0.0083014035
      4   2  29  20        -0.0079666285
      4   2  29  21         0.0074227829
      6   2 102  38         0.0073902247
      6   2 111  54        -0.0073571472
      6   2  88  38         0.0073081649

    Largest Tijab Amplitudes:
      4   1  42   1         0.0069808186
      4   1  91  85        -0.0066102412
      4   1  19   1         0.0062757102
      5   2  94  13        -0.0062457944
      4   1 106  85        -0.0062355162
      5   2  89  13        -0.0059193225
      5   2 100  17        -0.0058871051
      5   2  92  17         0.0058344306
      5   2  86  13        -0.0057399142
      3   2  18  15         0.0053227770

    Largest TIjAb Amplitudes:
      3   2  12  13        -0.0184740536
      2   1  38   1        -0.0169123592
      6   1  38  85        -0.0167222423
      4   4  29  30        -0.0156452894
      4   1 103  85        -0.0152047178
      2   1 101  85         0.0150557321
      6   1 101   1        -0.0146408789
      4   1  41   1        -0.0145473079
      2   1  88  85        -0.0144049817
      6   1  88   1         0.0140271445

    SCF energy       (wfn)                    = -150.874259141393139
    Reference energy (file100)                = -150.874259141393225

    Opposite-spin MP2 correlation energy      =   -0.314772490385309
    Same-spin MP2 correlation energy          =   -0.102041022046493
    MP2 correlation energy                    =   -0.416813512431802
      * MP2 total energy                      = -151.291072653825040

    Opposite-spin CCSD correlation energy     =   -0.342313689229534
    Same-spin CCSD correlation energy         =   -0.095298934584360
    CCSD correlation energy                   =   -0.437612623813894
      * CCSD total energy                     = -151.311871765207115

            **************************
            *                        *
            *        CCTRIPLES       *
            *                        *
            **************************


    Wave function   =    CCSD_T
    Reference wfn   =      UHF

    Nuclear Rep. energy (wfn)                =   22.982937787155837
    SCF energy          (wfn)                = -150.874259141393139
    Reference energy    (file100)            = -150.874259141393225
    CCSD energy         (file100)            =   -0.437612623813894
    Total CCSD energy   (file100)            = -151.311871765207115

    Number of ijk index combinations:
    Spin Case AAA:                                  56
    Spin Case BBB:                                  20
    Spin Case AAB:                                 168
    Spin Case ABB:                                 120
    AAA (T) energy                             =   -0.000400342807489
    BBB (T) energy                             =   -0.000203223826184
    AAB (T) energy                             =   -0.006756538699974
    ABB (T) energy                             =   -0.005022490444306
    (T) energy                                   =   -0.012382595777952
      * CCSD(T) total energy                     = -151.324254360985066

Stephenergy -151.32425436098507
    Psi4 stopped on: Tuesday, 09 March 2021 03:27PM
    Psi4 wall time for execution: 0:03:25.91

*** Psi4 exiting successfully. Buy a developer a beer!
