
    -----------------------------------------------------------------------
          Psi4: An Open-Source Ab Initio Electronic Structure Package
                               Psi4 1.3.2 release

                         Git: Rev {HEAD} ecbda83 


    R. M. Parrish, L. A. Burns, D. G. A. Smith, A. C. Simmonett,
    A. E. DePrince III, E. G. Hohenstein, U. Bozkaya, A. Yu. Sokolov,
    R. Di Remigio, R. M. Richard, J. F. Gonthier, A. M. James,
    H. R. McAlexander, A. Kumar, M. Saitow, X. Wang, B. P. Pritchard,
    P. Verma, H. F. Schaefer III, K. Patkowski, R. A. King, E. F. Valeev,
    F. A. Evangelista, J. M. Turney, T. D. Crawford, and C. D. Sherrill,
    J. Chem. Theory Comput. 13(7) pp 3185--3197 (2017).
    (doi: 10.1021/acs.jctc.7b00174)


                         Additional Contributions by
    P. Kraus, H. Kruse, M. H. Lechner, M. C. Schieber, R. A. Shaw,
    A. Alenaizan, R. Galvelis, Z. L. Glick, S. Lehtola, and J. P. Misiewicz

    -----------------------------------------------------------------------


    Psi4 started on: Wednesday, 10 March 2021 10:57AM

    Process ID: 71780
    Host:       c2-13.compute.lan
    PSIDATADIR: /apps/gb/PSI4/1.3.2/share/psi4
    Memory:     500.0 MiB
    Threads:    12
    
  ==> Input File <==

--------------------------------------------------------------------------
memory 4 GB

molecule  {
0 3
O   -1.504262781504   -0.001191536185    0.000000000000
H   -0.554379148204    0.158869674699    0.000000000000
H   -1.892390066010    0.875224065781    0.000000000000
O    1.658431485797   -0.063965770503    0.000000000000
}
set {
basis aug-cc-pvtz
reference uhf
e_convergence 10
scf_type pk
freeze_core true
}

set ccenergy {
e_convergence 10
r_convergence 10
}

e = energy('ccsd(t)')

print_out('Stephenergy {}'.format(e))

--------------------------------------------------------------------------

  Memory set to   3.725 GiB by Python driver.

*** tstart() called on c2-13.compute.lan
*** at Wed Mar 10 10:57:42 2021

   => Loading Basis Set <=

    Name: AUG-CC-PVTZ
    Role: ORBITAL
    Keyword: BASIS
    atoms 1, 4 entry O          line   327 file /apps/gb/PSI4/1.3.2/share/psi4/basis/aug-cc-pvtz.gbs 
    atoms 2-3  entry H          line    36 file /apps/gb/PSI4/1.3.2/share/psi4/basis/aug-cc-pvtz.gbs 


         ---------------------------------------------------------
                                   SCF
               by Justin Turney, Rob Parrish, Andy Simmonett
                          and Daniel G. A. Smith
                              UHF Reference
                       12 Threads,   3814 MiB Core
         ---------------------------------------------------------

  ==> Geometry <==

    Molecular point group: cs
    Full point group: Cs

    Geometry (in Angstrom), charge = 0, multiplicity = 3:

       Center              X                  Y                   Z               Mass       
    ------------   -----------------  -----------------  -----------------  -----------------
         O           -1.504262781504    -0.001191536185     0.000000000000    15.994914619570
         H           -0.554379148204     0.158869674699     0.000000000000     1.007825032230
         H           -1.892390066010     0.875224065781     0.000000000000     1.007825032230
         O            1.658431485797    -0.063965770503     0.000000000000    15.994914619570

  Running in cs symmetry.

  Rotational constants: A =     23.34396  B =      0.20010  C =      0.19840 [cm^-1]
  Rotational constants: A = 699834.45959  B =   5998.89077  C =   5947.90609 [MHz]
  Nuclear repulsion =   22.922525229160527

  Charge       = 0
  Multiplicity = 3
  Electrons    = 18
  Nalpha       = 10
  Nbeta        = 8

  ==> Algorithm <==

  SCF Algorithm Type is PK.
  DIIS enabled.
  MOM disabled.
  Fractional occupation disabled.
  Guess Type is SAD.
  Energy threshold   = 1.00e-10
  Density threshold  = 1.00e-08
  Integral threshold = 0.00e+00

  ==> Primary Basis <==

  Basis Set: AUG-CC-PVTZ
    Blend: AUG-CC-PVTZ
    Number of shells: 46
    Number of basis function: 138
    Number of Cartesian functions: 160
    Spherical Harmonics?: true
    Max angular momentum: 3

  ==> Pre-Iterations <==

   -------------------------------------------------------
    Irrep   Nso     Nmo     Nalpha   Nbeta   Ndocc  Nsocc
   -------------------------------------------------------
     A'        92      92       0       0       0       0
     A"        46      46       0       0       0       0
   -------------------------------------------------------
    Total     138     138      10       8       8       2
   -------------------------------------------------------

  ==> Integral Setup <==

  Using in-core PK algorithm.
   Calculation information:
      Number of atoms:                   4
      Number of AO shells:              46
      Number of primitives:             82
      Number of atomic orbitals:       160
      Number of basis functions:       138

      Integral cutoff                 1.00e-12
      Number of threads:                12

  Performing in-core PK
  Using 91996872 doubles for integral storage.
  We computed 902023 shell quartets total.
  Whereas there are 584821 unique shell quartets.
    54.24 percent of shell quartets recomputed by reordering.

  ==> DiskJK: Disk-Based J/K Matrices <==

    J tasked:                  Yes
    K tasked:                  Yes
    wK tasked:                  No
    Memory [MiB]:             2861
    Schwarz Cutoff:          1E-12

    OpenMP threads:             12

  Minimum eigenvalue in the overlap matrix is 2.9411691894E-04.
  Using Symmetric Orthogonalization.

  SCF Guess: Superposition of Atomic Densities via on-the-fly atomic UHF.

  ==> Iterations <==

                        Total Energy        Delta E     RMS |[F,P]|

   @UHF iter SAD:  -149.40251594696497   -1.49403e+02   0.00000e+00 
   @UHF iter   1:  -150.76387686635206   -1.36136e+00   5.05026e-03 DIIS
   @UHF iter   2:  -150.83815399283623   -7.42771e-02   3.27565e-03 DIIS
   @UHF iter   3:  -150.87321508038448   -3.50611e-02   3.92836e-04 DIIS
   @UHF iter   4:  -150.87432760084948   -1.11252e-03   1.30559e-04 DIIS
   @UHF iter   5:  -150.87445432732241   -1.26726e-04   5.11939e-05 DIIS
   @UHF iter   6:  -150.87448863610547   -3.43088e-05   1.54596e-05 DIIS
   @UHF iter   7:  -150.87449251111769   -3.87501e-06   5.67185e-06 DIIS
   @UHF iter   8:  -150.87449341098602   -8.99868e-07   4.55140e-06 DIIS
   @UHF iter   9:  -150.87449418752769   -7.76542e-07   4.43711e-06 DIIS
   @UHF iter  10:  -150.87449540126156   -1.21373e-06   4.37705e-06 DIIS
   @UHF iter  11:  -150.87450252540765   -7.12415e-06   4.07678e-06 DIIS
   @UHF iter  12:  -150.87452034687672   -1.78215e-05   3.85491e-06 DIIS
   @UHF iter  13:  -150.87452185655803   -1.50968e-06   3.38202e-06 DIIS
   @UHF iter  14:  -150.87453994994419   -1.80934e-05   8.81140e-06 DIIS
   @UHF iter  15:  -150.87453986617658    8.37676e-08   6.54830e-06 DIIS
   @UHF iter  16:  -150.87454159164687   -1.72547e-06   6.53826e-06 DIIS
   @UHF iter  17:  -150.87454182471950   -2.33073e-07   2.84303e-06 DIIS
   @UHF iter  18:  -150.87454191041309   -8.56936e-08   1.21892e-06 DIIS
   @UHF iter  19:  -150.87454192270670   -1.22936e-08   1.30552e-07 DIIS
   @UHF iter  20:  -150.87454192263033    7.63691e-11   1.75978e-07 DIIS
   @UHF iter  21:  -150.87454192280850   -1.78176e-10   4.63518e-09 DIIS
   @UHF iter  22:  -150.87454192280961   -1.10845e-12   8.28444e-10 DIIS
  Energy and wave function converged.


  ==> Post-Iterations <==

   @Spin Contamination Metric:   9.373888813E-03
   @S^2 Expected:                2.000000000E+00
   @S^2 Observed:                2.009373889E+00
   @S   Expected:                1.000000000E+00
   @S   Observed:                1.000000000E+00

    Orbital Energies [Eh]
    ---------------------

    Alpha Occupied:                                                       

       1Ap   -20.733046     2Ap   -20.558629     3Ap    -1.442377  
       4Ap    -1.343700     5Ap    -0.733166     1App   -0.732772  
       6Ap    -0.710506     7Ap    -0.634483     8Ap    -0.575540  
       2App   -0.502061  

    Alpha Virtual:                                                        

       9Ap     0.034220    10Ap     0.053486    11Ap     0.128174  
       3App    0.132942    12Ap     0.148141    13Ap     0.160845  
      14Ap     0.183990     4App    0.186798    15Ap     0.214123  
      16Ap     0.241981    17Ap     0.264458     5App    0.286564  
      18Ap     0.303946     6App    0.320474    19Ap     0.364228  
      20Ap     0.406675    21Ap     0.461030    22Ap     0.568571  
       7App    0.602677    23Ap     0.608712    24Ap     0.626882  
      25Ap     0.682562     8App    0.709473    26Ap     0.714572  
       9App    0.736676    10App    0.748843    27Ap     0.750380  
      28Ap     0.811842    11App    0.826075    29Ap     0.837465  
      12App    0.891098    30Ap     0.892731    31Ap     0.922551  
      32Ap     0.945439    13App    0.947294    33Ap     0.951643  
      14App    0.972114    34Ap     0.978274    35Ap     1.044270  
      36Ap     1.135940    15App    1.153960    37Ap     1.169874  
      38Ap     1.184945    39Ap     1.261392    16App    1.295244  
      40Ap     1.316275    17App    1.527945    41Ap     1.585887  
      18App    1.597991    42Ap     1.716806    43Ap     1.810106  
      44Ap     1.844350    45Ap     1.977650    19App    1.977758  
      46Ap     1.979871    20App    2.013275    47Ap     2.018147  
      21App    2.048587    48Ap     2.061725    22App    2.122547  
      49Ap     2.153221    50Ap     2.175954    23App    2.212625  
      24App    2.303569    51Ap     2.310016    52Ap     2.339527  
      53Ap     2.414865    25App    2.441374    54Ap     2.460896  
      55Ap     2.489731    26App    2.526978    56Ap     2.628898  
      57Ap     2.708763    27App    2.726968    58Ap     2.735291  
      59Ap     2.861489    60Ap     2.931407    28App    2.944241  
      61Ap     3.699598    62Ap     3.890968    29App    4.037766  
      30App    4.063468    63Ap     4.074247    31App    4.178644  
      64Ap     4.207910    65Ap     4.267899    32App    4.300673  
      33App    4.391676    66Ap     4.406132    34App    4.431002  
      67Ap     4.446434    68Ap     4.604549    69Ap     4.782691  
      70Ap     4.962711    35App    5.158259    71Ap     5.176426  
      72Ap     5.298433    73Ap     5.394720    36App    5.530145  
      74Ap     5.690391    75Ap     6.192210    37App    6.312397  
      76Ap     6.312429    38App    6.375592    77Ap     6.378237  
      39App    6.518049    78Ap     6.519257    79Ap     6.558865  
      80Ap     6.637057    40App    6.736402    81Ap     6.814610  
      41App    6.820056    82Ap     6.925787    42App    6.936873  
      83Ap     6.962285    84Ap     7.051046    43App    7.149197  
      44App    7.273596    85Ap     7.326643    45App    7.329130  
      86Ap     7.364671    46App    7.434687    87Ap     7.648940  
      88Ap     7.944359    89Ap     7.967046    90Ap     8.818118  
      91Ap     9.518183    92Ap    16.331309  

    Beta Occupied:                                                        

       1Ap   -20.654261     2Ap   -20.558758     3Ap    -1.344272  
       4Ap    -1.099911     5Ap    -0.709739     6Ap    -0.580513  
       7Ap    -0.541234     1App   -0.502105  

    Beta Virtual:                                                         

       8Ap     0.034380     2App    0.049378     9Ap     0.049648  
      10Ap     0.055176    11Ap     0.143791    12Ap     0.153016  
       3App    0.161235    13Ap     0.178174    14Ap     0.207797  
      15Ap     0.225521     4App    0.227192    16Ap     0.250697  
      17Ap     0.265699     5App    0.286771    18Ap     0.306069  
       6App    0.324207    19Ap     0.368122    20Ap     0.417629  
      21Ap     0.462280    22Ap     0.572158    23Ap     0.627589  
       7App    0.635073    24Ap     0.640517    25Ap     0.687398  
      26Ap     0.715236     8App    0.721536     9App    0.739870  
      10App    0.750486    27Ap     0.766840    28Ap     0.818206  
      29Ap     0.869018    11App    0.869307    30Ap     0.919981  
      31Ap     0.941941    12App    0.942004    13App    0.949464  
      32Ap     0.952991    33Ap     0.969635    34Ap     1.017830  
      14App    1.020321    35Ap     1.046366    15App    1.157128  
      36Ap     1.163971    37Ap     1.172969    38Ap     1.216169  
      39Ap     1.264445    16App    1.305829    40Ap     1.325065  
      17App    1.528682    41Ap     1.588102    18App    1.599399  
      42Ap     1.742967    43Ap     1.815829    44Ap     1.854870  
      45Ap     1.988199    46Ap     2.015714    19App    2.015726  
      20App    2.053911    47Ap     2.066283    21App    2.170709  
      48Ap     2.176346    22App    2.179643    49Ap     2.193919  
      50Ap     2.244707    23App    2.249944    24App    2.306936  
      51Ap     2.315516    52Ap     2.362143    53Ap     2.419379  
      25App    2.444097    54Ap     2.461663    55Ap     2.496042  
      26App    2.535413    56Ap     2.636097    57Ap     2.725831  
      27App    2.728288    58Ap     2.738695    59Ap     2.863304  
      60Ap     2.935854    28App    2.944868    61Ap     3.700288  
      62Ap     3.893323    29App    4.041040    30App    4.147377  
      63Ap     4.192885    64Ap     4.244213    31App    4.262764  
      65Ap     4.278528    32App    4.300743    33App    4.391746  
      66Ap     4.409758    34App    4.431649    67Ap     4.490962  
      68Ap     4.607011    69Ap     4.784394    70Ap     4.964649  
      35App    5.158246    71Ap     5.176718    72Ap     5.298683  
      73Ap     5.395913    36App    5.530203    74Ap     5.690737  
      75Ap     6.193484    76Ap     6.421243    37App    6.421248  
      38App    6.450786    77Ap     6.453415    78Ap     6.533834  
      39App    6.571926    79Ap     6.600200    80Ap     6.681988  
      40App    6.742359    81Ap     6.928601    41App    7.005114  
      82Ap     7.006889    42App    7.046099    83Ap     7.068342  
      84Ap     7.130754    43App    7.151755    44App    7.273893  
      85Ap     7.326983    45App    7.329775    86Ap     7.365428  
      46App    7.435096    87Ap     7.649748    88Ap     7.945304  
      89Ap     7.967489    90Ap     8.819706    91Ap     9.593153  
      92Ap    16.331568  

    Final Occupation by Irrep:
             Ap   App 
    DOCC [     7,    1 ]
    SOCC [     1,    1 ]

  @UHF Final Energy:  -150.87454192280961

   => Energetics <=

    Nuclear Repulsion Energy =             22.9225252291605273
    One-Electron Energy =                -253.6370608345486062
    Two-Electron Energy =                  79.8399936825784806
    Total Energy =                       -150.8745419228096125

  UHF NO Occupations:
  HONO-2 :    7 Ap 1.9970282
  HONO-1 :    8 Ap 1.0000000
  HONO-0 :    2App 1.0000000
  LUNO+0 :    9 Ap 0.0029718
  LUNO+1 :   10 Ap 0.0017161
  LUNO+2 :   11 Ap 0.0000024
  LUNO+3 :   12 Ap 0.0000017


Computation Completed


Properties will be evaluated at   0.000000,   0.000000,   0.000000 [a0]

Properties computed using the SCF density matrix

  Nuclear Dipole Moment: [e a0]
     X:    -2.2930      Y:     0.9691      Z:     0.0000

  Electronic Dipole Moment: [e a0]
     X:     2.7564      Y:    -0.2935      Z:     0.0000

  Dipole Moment: [e a0]
     X:     0.4634      Y:     0.6756      Z:     0.0000     Total:     0.8193

  Dipole Moment: [D]
     X:     1.1778      Y:     1.7172      Z:     0.0000     Total:     2.0823


*** tstop() called on c2-13.compute.lan at Wed Mar 10 10:57:48 2021
Module time:
	user time   =      55.24 seconds =       0.92 minutes
	system time =       2.84 seconds =       0.05 minutes
	total time  =          6 seconds =       0.10 minutes
Total time:
	user time   =      55.24 seconds =       0.92 minutes
	system time =       2.84 seconds =       0.05 minutes
	total time  =          6 seconds =       0.10 minutes
 MINTS: Wrapper to libmints.
   by Justin Turney

   Calculation information:
      Number of threads:                12
      Number of atoms:                   4
      Number of AO shells:              46
      Number of SO shells:              46
      Number of primitives:             82
      Number of atomic orbitals:       160
      Number of basis functions:       138

      Number of irreps:                  2
      Integral cutoff                 0.00e+00
      Number of functions per irrep: [  92   46 ]

 OEINTS: Overlap, kinetic, potential, dipole, and quadrupole integrals
         stored in file 35.

      Computing two-electron integrals...done
      Computed 22928254 non-zero two-electron integrals.
        Stored in file 33.


*** tstart() called on c2-13.compute.lan
*** at Wed Mar 10 10:57:53 2021


	Wfn Parameters:
	--------------------
	Wavefunction         = CCSD_T
	Number of irreps     = 2
	Number of MOs        = 138
	Number of active MOs = 136
	AO-Basis             = NONE
	Semicanonical        = false
	Reference            = UHF
	Print Level          = 1

	IRREP	# MOs	# FZDC	# DOCC	# SOCC	# VIRT	# FZVR
	-----	-----	------	------	------	------	------
	 Ap	   92	    2	    5	    1	    84	    0
	 App	   46	    0	    1	    1	    44	    0
	Transforming integrals...
	IWL integrals will be deleted.
	(OO|OO)...
	Presorting SO-basis two-electron integrals.
	Sorting File: SO Ints (nn|nn) nbuckets = 1
	Transforming the one-electron integrals and constructing Fock matrices
	Starting AA/AB first half-transformation.
	Sorting AA/AB half-transformed integrals.
	Starting BB first half-transformation.
	Sorting BB half-transformed integrals.
	First half integral transformation complete.
	Starting AA second half-transformation.
	Starting AB second half-transformation.
	Starting BB second half-transformation.
	Two-electron integral transformation complete.
	(OO|OV)...
	Starting AA second half-transformation.
	Starting AB second half-transformation.
	Starting BB second half-transformation.
	Two-electron integral transformation complete.
	(OO|VV)...
	Starting AA second half-transformation.
	Starting AB second half-transformation.
	Starting BB second half-transformation.
	Two-electron integral transformation complete.
	(OV|OO)...
	Starting AA/AB first half-transformation.
	Sorting AA/AB half-transformed integrals.
	Starting BB first half-transformation.
	Sorting BB half-transformed integrals.
	First half integral transformation complete.
	Starting AA second half-transformation.
	Starting AB second half-transformation.
	Starting BB second half-transformation.
	Two-electron integral transformation complete.
	(OV|OV)...
	Starting AA second half-transformation.
	Starting AB second half-transformation.
	Starting BB second half-transformation.
	Two-electron integral transformation complete.
	(OV|VV)...
	Starting AA second half-transformation.
	Starting AB second half-transformation.
	Starting BB second half-transformation.
	Two-electron integral transformation complete.
	(VV|OO)...
	Starting AA/AB first half-transformation.
	Sorting AA/AB half-transformed integrals.
	Starting BB first half-transformation.
	Sorting BB half-transformed integrals.
	First half integral transformation complete.
	Starting AA second half-transformation.
	Starting AB second half-transformation.
	Starting BB second half-transformation.
	Two-electron integral transformation complete.
	(VV|OV)...
	Starting AA second half-transformation.
	Starting AB second half-transformation.
	Starting BB second half-transformation.
	Two-electron integral transformation complete.
	(VV|VV)...
	Starting AA second half-transformation.
	Starting AB second half-transformation.
	Starting BB second half-transformation.
	Two-electron integral transformation complete.
	Frozen core energy     =   -125.86184459300354

	Size of irrep 0 of <AB|CD> integrals:     19.643 (MW) /    157.141 (MB)
	Size of irrep 1 of <AB|CD> integrals:     13.660 (MW) /    109.283 (MB)
	Total:                                    33.303 (MW) /    266.424 (MB)

	Size of irrep 0 of <ab|cd> integrals:     20.794 (MW) /    166.349 (MB)
	Size of irrep 1 of <ab|cd> integrals:     14.631 (MW) /    117.045 (MB)
	Total:                                    35.424 (MW) /    283.394 (MB)

	Size of irrep 0 of <Ab|Cd> integrals:     83.174 (MW) /    665.395 (MB)
	Size of irrep 1 of <Ab|Cd> integrals:     56.550 (MW) /    452.403 (MB)
	Total:                                   139.725 (MW) /   1117.798 (MB)

	Size of irrep 0 of <IA|BC> integrals:      5.323 (MW) /     42.586 (MB)
	Size of irrep 1 of <IA|BC> integrals:      3.193 (MW) /     25.547 (MB)
	Total:                                     8.517 (MW) /     68.133 (MB)

	Size of irrep 0 of <ia|bc> integrals:      4.348 (MW) /     34.780 (MB)
	Size of irrep 1 of <ia|bc> integrals:      2.372 (MW) /     18.972 (MB)
	Total:                                     6.719 (MW) /     53.752 (MB)

	Size of irrep 0 of <Ia|Bc> integrals:      5.472 (MW) /     43.776 (MB)
	Size of irrep 1 of <Ia|Bc> integrals:      3.309 (MW) /     26.470 (MB)
	Total:                                     8.781 (MW) /     70.246 (MB)

	Size of irrep 0 of <iA|bC> integrals:      4.232 (MW) /     33.853 (MB)
	Size of irrep 1 of <iA|bC> integrals:      2.286 (MW) /     18.289 (MB)
	Total:                                     6.518 (MW) /     52.142 (MB)

	Size of irrep 0 of tIjAb amplitudes:       0.292 (MW) /      2.335 (MB)
	Size of irrep 1 of tIjAb amplitudes:       0.120 (MW) /      0.963 (MB)
	Total:                                     0.412 (MW) /      3.297 (MB)

	Nuclear Rep. energy          =     22.92252522916053
	SCF energy                   =   -150.87454192280961
	One-electron energy          =    -84.41806446391516
	Two-electron (AA) energy     =     10.13804367525489
	Two-electron (BB) energy     =      5.39351065131704
	Two-electron (AB) energy     =     20.95128757837581
	Two-electron energy          =     36.48284190494774
	Reference energy             =   -150.87454192281041

*** tstop() called on c2-13.compute.lan at Wed Mar 10 10:58:41 2021
Module time:
	user time   =     284.73 seconds =       4.75 minutes
	system time =      22.68 seconds =       0.38 minutes
	total time  =         48 seconds =       0.80 minutes
Total time:
	user time   =     347.01 seconds =       5.78 minutes
	system time =      26.46 seconds =       0.44 minutes
	total time  =         59 seconds =       0.98 minutes
            **************************
            *                        *
            *        CCENERGY        *
            *                        *
            **************************

    Nuclear Rep. energy (wfn)     =   22.922525229160527
    SCF energy          (wfn)     = -150.874541922809613
    Reference energy    (file100) = -150.874541922810408

    Input parameters:
    -----------------
    Wave function   =     CCSD_T
    Reference wfn   =     UHF
    Brueckner       =     No
    Memory (Mbytes) =     4000.0
    Maxiter         =     50
    R_Convergence   =     1.0e-10
    E_Convergence   =     1.0e-10
    Restart         =     Yes
    DIIS            =     Yes
    AO Basis        =     NONE
    ABCD            =     NEW
    Cache Level     =     2
    Cache Type      =     LRU
    Print Level     =     1
    Num. of threads =     12
    # Amps to Print =     10
    Print MP2 Amps? =     No
    Analyze T2 Amps =     No
    Print Pair Ener =     No
    Local CC        =     No
    SCS-MP2         =     False
    SCSN-MP2        =     False
    SCS-CCSD        =     False

MP2 correlation energy -0.4165381067583698
                Solving CC Amplitude Equations
                ------------------------------
  Iter             Energy              RMS        T1Diag      D1Diag    New D1Diag    D2Diag
  ----     ---------------------    ---------   ----------  ----------  ----------   --------
     0        -0.416538106758370    0.000e+00    0.000000    0.000000    0.000000    0.000000
     1        -0.427279095546467    5.682e-02    0.010541    0.000000    0.000000    0.000000
     2        -0.435357957421564    1.687e-02    0.011022    0.000000    0.000000    0.000000
     3        -0.437475277365358    8.562e-03    0.012890    0.000000    0.000000    0.000000
     4        -0.437349415446167    2.533e-03    0.013256    0.000000    0.000000    0.000000
     5        -0.437335016971294    1.319e-03    0.013412    0.000000    0.000000    0.000000
     6        -0.437362255996021    5.143e-04    0.013434    0.000000    0.000000    0.000000
     7        -0.437366880603600    2.640e-04    0.013429    0.000000    0.000000    0.000000
     8        -0.437367478477049    9.926e-05    0.013424    0.000000    0.000000    0.000000
     9        -0.437368844151018    7.403e-05    0.013425    0.000000    0.000000    0.000000
    10        -0.437367291256608    6.396e-05    0.013426    0.000000    0.000000    0.000000
    11        -0.437367437715197    6.112e-05    0.013427    0.000000    0.000000    0.000000
    12        -0.437367148876354    5.944e-05    0.013430    0.000000    0.000000    0.000000
    13        -0.437367141853162    5.830e-05    0.013433    0.000000    0.000000    0.000000
    14        -0.437368313856481    5.642e-05    0.013451    0.000000    0.000000    0.000000
    15        -0.437368690531838    4.990e-05    0.013523    0.000000    0.000000    0.000000
    16        -0.437368467032840    3.335e-05    0.013662    0.000000    0.000000    0.000000
    17        -0.437368120438343    1.611e-05    0.013731    0.000000    0.000000    0.000000
    18        -0.437367991533805    7.553e-06    0.013748    0.000000    0.000000    0.000000
    19        -0.437368250454677    3.340e-06    0.013753    0.000000    0.000000    0.000000
    20        -0.437368361803255    1.497e-06    0.013753    0.000000    0.000000    0.000000
    21        -0.437368369822344    5.899e-07    0.013754    0.000000    0.000000    0.000000
    22        -0.437368371063004    2.805e-07    0.013754    0.000000    0.000000    0.000000
    23        -0.437368369935318    1.458e-07    0.013754    0.000000    0.000000    0.000000
    24        -0.437368369259304    6.053e-08    0.013754    0.000000    0.000000    0.000000
    25        -0.437368370219360    3.316e-08    0.013754    0.000000    0.000000    0.000000
    26        -0.437368370680026    2.580e-08    0.013754    0.000000    0.000000    0.000000
    27        -0.437368370839355    2.417e-08    0.013754    0.000000    0.000000    0.000000
    28        -0.437368370785723    2.342e-08    0.013754    0.000000    0.000000    0.000000
    29        -0.437368370619667    2.275e-08    0.013754    0.000000    0.000000    0.000000
    30        -0.437368370350547    2.164e-08    0.013754    0.000000    0.000000    0.000000
    31        -0.437368370553789    1.827e-08    0.013754    0.000000    0.000000    0.000000
    32        -0.437368370900566    9.528e-09    0.013754    0.000000    0.000000    0.000000
    33        -0.437368371002673    4.175e-09    0.013754    0.000000    0.000000    0.000000
    34        -0.437368371054243    1.701e-09    0.013754    0.000000    0.000000    0.000000
    35        -0.437368371060846    6.677e-10    0.013754    0.000000    0.000000    0.000000
    36        -0.437368371060581    2.864e-10    0.013754    0.000000    0.000000    0.000000
    37        -0.437368371058429    1.220e-10    0.013754    0.000000    0.000000    0.000000
    38        -0.437368371059898    5.782e-11    0.013754    0.000000    0.000000    0.000000

    Iterations converged.


    Largest TIA Amplitudes:
              7  87        -0.0121499283
              7  84        -0.0116003721
              7  85        -0.0094308222
              4   3         0.0090182131
              6  84        -0.0080669738
              5   9        -0.0076762000
              4  10         0.0070441920
              5   2        -0.0069735554
              2   2         0.0068840458
              7  86        -0.0063293984

    Largest Tia Amplitudes:
              5  86        -0.0122789684
              5  89        -0.0117326905
              5  85        -0.0098440150
              4   1        -0.0097403934
              3   3         0.0089576408
              3  10        -0.0071008818
              5  88        -0.0065221560
              5  87        -0.0060004074
              3  11         0.0057733621
              4   7        -0.0057096059

    Largest TIJAB Amplitudes:
      6   2  92  20        -0.0109373675
      6   2 101  38        -0.0097992744
      6   4  92  29        -0.0096344775
      6   2  92  21        -0.0087730517
      4   2  29  20        -0.0084006800
      4   2  41  40         0.0082576653
      6   2 102  38         0.0076616854
      4   2  29  21        -0.0073148102
      6   2  88  38         0.0072915875
      6   2 111  54        -0.0072169913

    Largest Tijab Amplitudes:
      4   1  42   1         0.0070539291
      4   1  91  85        -0.0067912619
      4   1  19   1         0.0064356455
      4   1 106  85        -0.0063141642
      5   2  94  13         0.0062726564
      5   2  89  13         0.0058548328
      5   2 100  17         0.0058223245
      5   2  92  17        -0.0057149919
      5   2  86  13         0.0057121070
      3   2  18  15        -0.0054677449

    Largest TIjAb Amplitudes:
      3   2  12  13         0.0181599721
      2   1  38   1        -0.0171108509
      6   1  38  85        -0.0165733600
      4   4  29  30         0.0163222603
      4   1 103  85        -0.0151300573
      2   1 101  85         0.0146550962
      6   1 101   1        -0.0143990161
      4   1  41   1        -0.0143857084
      2   1  88  85        -0.0143768453
      6   1  88   1         0.0141439976

    SCF energy       (wfn)                    = -150.874541922809613
    Reference energy (file100)                = -150.874541922810408

    Opposite-spin MP2 correlation energy      =   -0.314576745316121
    Same-spin MP2 correlation energy          =   -0.101961361442249
    MP2 correlation energy                    =   -0.416538106758370
      * MP2 total energy                      = -151.291080029568775

    Opposite-spin CCSD correlation energy     =   -0.342115218860233
    Same-spin CCSD correlation energy         =   -0.095253152199666
    CCSD correlation energy                   =   -0.437368371059898
      * CCSD total energy                     = -151.311910293870312

            **************************
            *                        *
            *        CCTRIPLES       *
            *                        *
            **************************


    Wave function   =    CCSD_T
    Reference wfn   =      UHF

    Nuclear Rep. energy (wfn)                =   22.922525229160527
    SCF energy          (wfn)                = -150.874541922809613
    Reference energy    (file100)            = -150.874541922810408
    CCSD energy         (file100)            =   -0.437368371059898
    Total CCSD energy   (file100)            = -151.311910293870312

    Number of ijk index combinations:
    Spin Case AAA:                                  56
    Spin Case BBB:                                  20
    Spin Case AAB:                                 168
    Spin Case ABB:                                 120
    AAA (T) energy                             =   -0.000399340845099
    BBB (T) energy                             =   -0.000202471608715
    AAB (T) energy                             =   -0.006738342150417
    ABB (T) energy                             =   -0.005004719706497
    (T) energy                                   =   -0.012344874310727
      * CCSD(T) total energy                     = -151.324255168181026

Stephenergy -151.32425516818103
    Psi4 stopped on: Wednesday, 10 March 2021 11:01AM
    Psi4 wall time for execution: 0:04:00.89

*** Psi4 exiting successfully. Buy a developer a beer!
