
    -----------------------------------------------------------------------
          Psi4: An Open-Source Ab Initio Electronic Structure Package
                               Psi4 1.3.2 release

                         Git: Rev {HEAD} ecbda83 


    R. M. Parrish, L. A. Burns, D. G. A. Smith, A. C. Simmonett,
    A. E. DePrince III, E. G. Hohenstein, U. Bozkaya, A. Yu. Sokolov,
    R. Di Remigio, R. M. Richard, J. F. Gonthier, A. M. James,
    H. R. McAlexander, A. Kumar, M. Saitow, X. Wang, B. P. Pritchard,
    P. Verma, H. F. Schaefer III, K. Patkowski, R. A. King, E. F. Valeev,
    F. A. Evangelista, J. M. Turney, T. D. Crawford, and C. D. Sherrill,
    J. Chem. Theory Comput. 13(7) pp 3185--3197 (2017).
    (doi: 10.1021/acs.jctc.7b00174)


                         Additional Contributions by
    P. Kraus, H. Kruse, M. H. Lechner, M. C. Schieber, R. A. Shaw,
    A. Alenaizan, R. Galvelis, Z. L. Glick, S. Lehtola, and J. P. Misiewicz

    -----------------------------------------------------------------------


    Psi4 started on: Monday, 08 March 2021 05:40PM

    Process ID: 87323
    Host:       c5-3.compute.lan
    PSIDATADIR: /apps/gb/PSI4/1.3.2/share/psi4
    Memory:     500.0 MiB
    Threads:    12
    
  ==> Input File <==

--------------------------------------------------------------------------
memory 4 GB

molecule  {
0 3
O    0.000000000000    0.000000000000    1.270101053562
H    0.000000000000   -0.761693210432    1.859457714162
H   -0.000000000000    0.761693210432    1.859457714162
O    0.000000000000    0.000000000000   -1.504426534538
}
set {
basis aug-cc-pvtz
reference uhf
e_convergence 10
scf_type pk
freeze_core true
}

set ccenergy {
e_convergence 10
r_convergence 10
}

e = energy('ccsd(t)')

print_out('Stephenergy {}'.format(e))

--------------------------------------------------------------------------

  Memory set to   3.725 GiB by Python driver.

*** tstart() called on c5-3.compute.lan
*** at Mon Mar  8 17:40:14 2021

   => Loading Basis Set <=

    Name: AUG-CC-PVTZ
    Role: ORBITAL
    Keyword: BASIS
    atoms 1, 4 entry O          line   327 file /apps/gb/PSI4/1.3.2/share/psi4/basis/aug-cc-pvtz.gbs 
    atoms 2-3  entry H          line    36 file /apps/gb/PSI4/1.3.2/share/psi4/basis/aug-cc-pvtz.gbs 


         ---------------------------------------------------------
                                   SCF
               by Justin Turney, Rob Parrish, Andy Simmonett
                          and Daniel G. A. Smith
                              UHF Reference
                       12 Threads,   3814 MiB Core
         ---------------------------------------------------------

  ==> Geometry <==

    Molecular point group: c2v
    Full point group: C2v

    Geometry (in Angstrom), charge = 0, multiplicity = 3:

       Center              X                  Y                   Z               Mass       
    ------------   -----------------  -----------------  -----------------  -----------------
         O            0.000000000000     0.000000000000     1.270101053562    15.994914619570
         H            0.000000000000    -0.761693210432     1.859457714162     1.007825032230
         H           -0.000000000000     0.761693210432     1.859457714162     1.007825032230
         O            0.000000000000     0.000000000000    -1.504426534538    15.994914619570

  Running in c2v symmetry.

  Rotational constants: A =     14.41522  B =      0.24441  C =      0.24033 [cm^-1]
  Rotational constants: A = 432157.34006  B =   7327.21568  C =   7205.05419 [MHz]
  Nuclear repulsion =   23.800170270398915

  Charge       = 0
  Multiplicity = 3
  Electrons    = 18
  Nalpha       = 10
  Nbeta        = 8

  ==> Algorithm <==

  SCF Algorithm Type is PK.
  DIIS enabled.
  MOM disabled.
  Fractional occupation disabled.
  Guess Type is SAD.
  Energy threshold   = 1.00e-10
  Density threshold  = 1.00e-08
  Integral threshold = 0.00e+00

  ==> Primary Basis <==

  Basis Set: AUG-CC-PVTZ
    Blend: AUG-CC-PVTZ
    Number of shells: 46
    Number of basis function: 138
    Number of Cartesian functions: 160
    Spherical Harmonics?: true
    Max angular momentum: 3

  ==> Pre-Iterations <==

   -------------------------------------------------------
    Irrep   Nso     Nmo     Nalpha   Nbeta   Ndocc  Nsocc
   -------------------------------------------------------
     A1        54      54       0       0       0       0
     A2        17      17       0       0       0       0
     B1        29      29       0       0       0       0
     B2        38      38       0       0       0       0
   -------------------------------------------------------
    Total     138     138      10       8       8       2
   -------------------------------------------------------

  ==> Integral Setup <==

  Using in-core PK algorithm.
   Calculation information:
      Number of atoms:                   4
      Number of AO shells:              46
      Number of primitives:             82
      Number of atomic orbitals:       160
      Number of basis functions:       138

      Integral cutoff                 1.00e-12
      Number of threads:                12

  Performing in-core PK
  Using 91996872 doubles for integral storage.
  We computed 909543 shell quartets total.
  Whereas there are 584821 unique shell quartets.
    55.53 percent of shell quartets recomputed by reordering.

  ==> DiskJK: Disk-Based J/K Matrices <==

    J tasked:                  Yes
    K tasked:                  Yes
    wK tasked:                  No
    Memory [MiB]:             2861
    Schwarz Cutoff:          1E-12

    OpenMP threads:             12

  Minimum eigenvalue in the overlap matrix is 3.2447181561E-04.
  Using Symmetric Orthogonalization.

  SCF Guess: Superposition of Atomic Densities via on-the-fly atomic UHF.

  ==> Iterations <==

                        Total Energy        Delta E     RMS |[F,P]|

   @UHF iter SAD:  -149.37957048278244   -1.49380e+02   0.00000e+00 
   @UHF iter   1:  -150.76972042639954   -1.39015e+00   6.69505e-03 DIIS
   @UHF iter   2:  -150.84045100423629   -7.07306e-02   4.26236e-03 DIIS
   @UHF iter   3:  -150.87185900292565   -3.14080e-02   5.59510e-04 DIIS
   @UHF iter   4:  -150.87323821377186   -1.37921e-03   1.71296e-04 DIIS
   @UHF iter   5:  -150.87337278379519   -1.34570e-04   6.98489e-05 DIIS
   @UHF iter   6:  -150.87340593936648   -3.31556e-05   2.08764e-05 DIIS
   @UHF iter   7:  -150.87340904656926   -3.10720e-06   5.37353e-06 DIIS
   @UHF iter   8:  -150.87340927248545   -2.25916e-07   1.49802e-06 DIIS
   @UHF iter   9:  -150.87340928962678   -1.71413e-08   3.75037e-07 DIIS
   @UHF iter  10:  -150.87340929076922   -1.14244e-09   1.81163e-07 DIIS
   @UHF iter  11:  -150.87340929112924   -3.60018e-10   7.03860e-08 DIIS
   @UHF iter  12:  -150.87340929118525   -5.60192e-11   1.50944e-08 DIIS
   @UHF iter  13:  -150.87340929118716   -1.90425e-12   4.51986e-09 DIIS
  Energy and wave function converged.


  ==> Post-Iterations <==

   @Spin Contamination Metric:   9.530970640E-03
   @S^2 Expected:                2.000000000E+00
   @S^2 Observed:                2.009530971E+00
   @S   Expected:                1.000000000E+00
   @S   Observed:                1.000000000E+00

    Orbital Energies [Eh]
    ---------------------

    Alpha Occupied:                                                       

       1A1   -20.684517     2A1   -20.571393     3A1    -1.393934  
       4A1    -1.354435     1B2    -0.718183     5A1    -0.688168  
       1B1    -0.685239     2B2    -0.586249     6A1    -0.585913  
       2B1    -0.513807  

    Alpha Virtual:                                                        

       7A1     0.029544     3B2     0.047656     8A1     0.118614  
       3B1     0.154086     9A1     0.159446     4B2     0.180216  
       5B2     0.186925     4B1     0.192768    10A1     0.197909  
       1A2     0.263648     6B2     0.263979    11A1     0.264717  
      12A1     0.314395     5B1     0.326792    13A1     0.376085  
       7B2     0.380250    14A1     0.449576     8B2     0.464056  
       9B2     0.600047     6B1     0.643644    15A1     0.647296  
       2A2     0.658164    16A1     0.666392    17A1     0.696284  
       3A2     0.721617    10B2     0.722437     7B1     0.767600  
      18A1     0.792874    19A1     0.818449     8B1     0.837507  
      20A1     0.860474     9B1     0.901311    11B2     0.918623  
       4A2     0.924463    12B2     0.945944    13B2     0.979321  
      21A1     0.989681    10B1     1.012736    22A1     1.045973  
      14B2     1.050895    11B1     1.121797     5A2     1.176199  
      23A1     1.190993    15B2     1.198791    16B2     1.327246  
      24A1     1.336373    25A1     1.443771     6A2     1.506818  
      12B1     1.593510    26A1     1.667327    27A1     1.813088  
      17B2     1.819582    18B2     1.975437    28A1     2.040733  
      13B1     2.047716    19B2     2.054049     7A2     2.056771  
      14B1     2.058874    29A1     2.078434    30A1     2.114871  
       8A2     2.118695    20B2     2.135116    31A1     2.139439  
      15B1     2.144981    32A1     2.251796    21B2     2.267040  
      16B1     2.303454     9A2     2.311495    17B1     2.433637  
      33A1     2.470124    22B2     2.482513    34A1     2.485382  
      35A1     2.696270    18B1     2.716320    23B2     2.721941  
      36A1     2.838487    24B2     2.863103    10A2     2.879239  
      25B2     3.688188    37A1     3.752073    11A2     4.011351  
      19B1     4.077960    20B1     4.099086    38A1     4.140816  
      26B2     4.182865    27B2     4.278276    21B1     4.290253  
      39A1     4.350419    12A2     4.380985    40A1     4.428934  
      22B1     4.449220    28B2     4.513039    41A1     4.785792  
      29B2     4.834182    30B2     5.136709    13A2     5.140518  
      31B2     5.246726    42A1     5.333398    23B1     5.510672  
      43A1     5.683084    44A1     6.194752    24B1     6.388860  
      45A1     6.408859    14A2     6.410150    32B2     6.423587  
      25B1     6.435485    33B2     6.485751    46A1     6.534615  
      34B2     6.582663    26B1     6.715671    27B1     6.902304  
      47A1     6.904844    15A2     6.924514    48A1     6.937505  
      35B2     6.985641    49A1     7.045959    28B1     7.133410  
      29B1     7.276611    16A2     7.302062    36B2     7.307291  
      17A2     7.352087    50A1     7.435889    51A1     7.538177  
      52A1     7.908054    37B2     7.909250    38B2     8.795464  
      53A1     8.860343    54A1    15.723884  

    Beta Occupied:                                                        

       1A1   -20.605651     2A1   -20.570931     3A1    -1.353743  
       4A1    -1.051131     1B2    -0.717854     5A1    -0.587622  
       1B1    -0.513146     2B2    -0.495669  

    Beta Virtual:                                                         

       6A1     0.029383     3B2     0.047737     2B1     0.086515  
       7A1     0.091922     8A1     0.140975     9A1     0.166989  
       3B1     0.170674     4B2     0.180846     5B2     0.190513  
      10A1     0.225419     4B1     0.253288     1A2     0.263650  
       6B2     0.264427    11A1     0.288383    12A1     0.316793  
       5B1     0.328093     7B2     0.380423    13A1     0.386426  
      14A1     0.450662     8B2     0.464252     9B2     0.601662  
      15A1     0.660153     6B1     0.667453     2A2     0.672583  
      16A1     0.673704    17A1     0.713477     3A2     0.722084  
      10B2     0.734643     7B1     0.778863    18A1     0.806245  
       8B1     0.846706    19A1     0.849937     4A2     0.924850  
      20A1     0.928163    11B2     0.936316    12B2     0.953019  
      13B2     0.983098     9B1     0.986754    21A1     0.996692  
      14B2     1.052011    22A1     1.052238    10B1     1.060409  
      11B1     1.137859     5A2     1.176394    23A1     1.192470  
      15B2     1.201529    16B2     1.329633    24A1     1.393040  
      25A1     1.483292     6A2     1.507237    12B1     1.595481  
      26A1     1.697310    27A1     1.818102    17B2     1.819910  
      18B2     1.976808    28A1     2.070069    13B1     2.070824  
      19B2     2.071481     7A2     2.081410    29A1     2.098371  
      14B1     2.100097    30A1     2.155185    20B2     2.180804  
       8A2     2.201917    31A1     2.207675    15B1     2.258065  
      32A1     2.308566     9A2     2.311629    21B2     2.318861  
      16B1     2.319298    17B1     2.441569    33A1     2.482041  
      22B2     2.485410    34A1     2.515174    35A1     2.703440  
      18B1     2.718007    23B2     2.722837    36A1     2.850751  
      24B2     2.863285    10A2     2.879272    25B2     3.689059  
      37A1     3.752208    11A2     4.011379    19B1     4.080127  
      38A1     4.172942    26B2     4.217727    20B1     4.259603  
      27B2     4.289890    21B1     4.294952    12A2     4.381091  
      39A1     4.427296    22B1     4.454386    40A1     4.467648  
      28B2     4.513119    41A1     4.796659    29B2     4.834337  
      30B2     5.136887    13A2     5.140593    31B2     5.247132  
      42A1     5.334033    23B1     5.510783    43A1     5.687587  
      44A1     6.196352    24B1     6.485584    14A2     6.486979  
      32B2     6.487763    45A1     6.493116    25B1     6.499104  
      33B2     6.521677    46A1     6.606075    34B2     6.610273  
      26B1     6.722590    47A1     6.951923    15A2     7.038066  
      48A1     7.041941    27B1     7.084803    35B2     7.097502  
      28B1     7.133826    49A1     7.173808    29B1     7.280780  
      16A2     7.302319    36B2     7.307476    17A2     7.352508  
      50A1     7.438625    51A1     7.539284    52A1     7.908615  
      37B2     7.909599    38B2     8.795834    53A1     8.939766  
      54A1    15.724202  

    Final Occupation by Irrep:
             A1    A2    B1    B2 
    DOCC [     5,    0,    1,    2 ]
    SOCC [     1,    0,    1,    0 ]

  @UHF Final Energy:  -150.87340929118716

   => Energetics <=

    Nuclear Repulsion Energy =             23.8001702703989153
    One-Electron Energy =                -255.6695736682883648
    Two-Electron Energy =                  80.9959941067022839
    Total Energy =                       -150.8734092911871585

  UHF NO Occupations:
  HONO-2 :    5 A1 1.9970493
  HONO-1 :    2 B1 1.0000000
  HONO-0 :    6 A1 1.0000000
  LUNO+0 :    7 A1 0.0029507
  LUNO+1 :    3 B2 0.0017950
  LUNO+2 :    8 A1 0.0000217
  LUNO+3 :    9 A1 0.0000024


Computation Completed


Properties will be evaluated at   0.000000,   0.000000,   0.000000 [a0]

Properties computed using the SCF density matrix

  Nuclear Dipole Moment: [e a0]
     X:     0.0000      Y:     0.0000      Z:     3.4852

  Electronic Dipole Moment: [e a0]
     X:     0.0000      Y:     0.0000      Z:    -2.6492

  Dipole Moment: [e a0]
     X:     0.0000      Y:     0.0000      Z:     0.8360     Total:     0.8360

  Dipole Moment: [D]
     X:     0.0000      Y:     0.0000      Z:     2.1249     Total:     2.1249


*** tstop() called on c5-3.compute.lan at Mon Mar  8 17:40:19 2021
Module time:
	user time   =      43.61 seconds =       0.73 minutes
	system time =       0.68 seconds =       0.01 minutes
	total time  =          5 seconds =       0.08 minutes
Total time:
	user time   =      43.61 seconds =       0.73 minutes
	system time =       0.68 seconds =       0.01 minutes
	total time  =          5 seconds =       0.08 minutes
 MINTS: Wrapper to libmints.
   by Justin Turney

   Calculation information:
      Number of threads:                12
      Number of atoms:                   4
      Number of AO shells:              46
      Number of SO shells:              37
      Number of primitives:             82
      Number of atomic orbitals:       160
      Number of basis functions:       138

      Number of irreps:                  4
      Integral cutoff                 0.00e+00
      Number of functions per irrep: [  54   17   29   38 ]

 OEINTS: Overlap, kinetic, potential, dipole, and quadrupole integrals
         stored in file 35.

      Computing two-electron integrals...done
      Computed 11522118 non-zero two-electron integrals.
        Stored in file 33.


*** tstart() called on c5-3.compute.lan
*** at Mon Mar  8 17:40:21 2021


	Wfn Parameters:
	--------------------
	Wavefunction         = CCSD_T
	Number of irreps     = 4
	Number of MOs        = 138
	Number of active MOs = 136
	AO-Basis             = NONE
	Semicanonical        = false
	Reference            = UHF
	Print Level          = 1

	IRREP	# MOs	# FZDC	# DOCC	# SOCC	# VIRT	# FZVR
	-----	-----	------	------	------	------	------
	 A1	   54	    2	    3	    1	    48	    0
	 A2	   17	    0	    0	    0	    17	    0
	 B1	   29	    0	    1	    1	    27	    0
	 B2	   38	    0	    2	    0	    36	    0
	Transforming integrals...
	IWL integrals will be deleted.
	(OO|OO)...
	Presorting SO-basis two-electron integrals.
	Sorting File: SO Ints (nn|nn) nbuckets = 1
	Transforming the one-electron integrals and constructing Fock matrices
	Starting AA/AB first half-transformation.
	Sorting AA/AB half-transformed integrals.
	Starting BB first half-transformation.
	Sorting BB half-transformed integrals.
	First half integral transformation complete.
	Starting AA second half-transformation.
	Starting AB second half-transformation.
	Starting BB second half-transformation.
	Two-electron integral transformation complete.
	(OO|OV)...
	Starting AA second half-transformation.
	Starting AB second half-transformation.
	Starting BB second half-transformation.
	Two-electron integral transformation complete.
	(OO|VV)...
	Starting AA second half-transformation.
	Starting AB second half-transformation.
	Starting BB second half-transformation.
	Two-electron integral transformation complete.
	(OV|OO)...
	Starting AA/AB first half-transformation.
	Sorting AA/AB half-transformed integrals.
	Starting BB first half-transformation.
	Sorting BB half-transformed integrals.
	First half integral transformation complete.
	Starting AA second half-transformation.
	Starting AB second half-transformation.
	Starting BB second half-transformation.
	Two-electron integral transformation complete.
	(OV|OV)...
	Starting AA second half-transformation.
	Starting AB second half-transformation.
	Starting BB second half-transformation.
	Two-electron integral transformation complete.
	(OV|VV)...
	Starting AA second half-transformation.
	Starting AB second half-transformation.
	Starting BB second half-transformation.
	Two-electron integral transformation complete.
	(VV|OO)...
	Starting AA/AB first half-transformation.
	Sorting AA/AB half-transformed integrals.
	Starting BB first half-transformation.
	Sorting BB half-transformed integrals.
	First half integral transformation complete.
	Starting AA second half-transformation.
	Starting AB second half-transformation.
	Starting BB second half-transformation.
	Two-electron integral transformation complete.
	(VV|OV)...
	Starting AA second half-transformation.
	Starting AB second half-transformation.
	Starting BB second half-transformation.
	Two-electron integral transformation complete.
	(VV|VV)...
	Starting AA second half-transformation.
	Starting AB second half-transformation.
	Starting BB second half-transformation.
	Two-electron integral transformation complete.
	Frozen core energy     =   -126.36269211470936

	Size of irrep 0 of <AB|CD> integrals:      5.040 (MW) /     40.320 (MB)
	Size of irrep 1 of <AB|CD> integrals:      3.197 (MW) /     25.576 (MB)
	Size of irrep 2 of <AB|CD> integrals:      3.640 (MW) /     29.124 (MB)
	Size of irrep 3 of <AB|CD> integrals:      4.783 (MW) /     38.264 (MB)
	Total:                                    16.660 (MW) /    133.283 (MB)

	Size of irrep 0 of <ab|cd> integrals:      5.382 (MW) /     43.059 (MB)
	Size of irrep 1 of <ab|cd> integrals:      3.389 (MW) /     27.114 (MB)
	Size of irrep 2 of <ab|cd> integrals:      3.936 (MW) /     31.490 (MB)
	Size of irrep 3 of <ab|cd> integrals:      5.018 (MW) /     40.141 (MB)
	Total:                                    17.726 (MW) /    141.804 (MB)

	Size of irrep 0 of <Ab|Cd> integrals:     22.024 (MW) /    176.194 (MB)
	Size of irrep 1 of <Ab|Cd> integrals:     13.170 (MW) /    105.357 (MB)
	Size of irrep 2 of <Ab|Cd> integrals:     15.140 (MW) /    121.119 (MB)
	Size of irrep 3 of <Ab|Cd> integrals:     19.598 (MW) /    156.787 (MB)
	Total:                                    69.932 (MW) /    559.457 (MB)

	Size of irrep 0 of <IA|BC> integrals:      1.469 (MW) /     11.748 (MB)
	Size of irrep 1 of <IA|BC> integrals:      0.694 (MW) /      5.550 (MB)
	Size of irrep 2 of <IA|BC> integrals:      0.908 (MW) /      7.266 (MB)
	Size of irrep 3 of <IA|BC> integrals:      1.198 (MW) /      9.588 (MB)
	Total:                                     4.269 (MW) /     34.152 (MB)

	Size of irrep 0 of <ia|bc> integrals:      1.178 (MW) /      9.426 (MB)
	Size of irrep 1 of <ia|bc> integrals:      0.527 (MW) /      4.212 (MB)
	Size of irrep 2 of <ia|bc> integrals:      0.663 (MW) /      5.301 (MB)
	Size of irrep 3 of <ia|bc> integrals:      0.999 (MW) /      7.992 (MB)
	Total:                                     3.366 (MW) /     26.931 (MB)

	Size of irrep 0 of <Ia|Bc> integrals:      1.521 (MW) /     12.164 (MB)
	Size of irrep 1 of <Ia|Bc> integrals:      0.711 (MW) /      5.690 (MB)
	Size of irrep 2 of <Ia|Bc> integrals:      0.949 (MW) /      7.595 (MB)
	Size of irrep 3 of <Ia|Bc> integrals:      1.222 (MW) /      9.775 (MB)
	Total:                                     4.403 (MW) /     35.225 (MB)

	Size of irrep 0 of <iA|bC> integrals:      1.140 (MW) /      9.123 (MB)
	Size of irrep 1 of <iA|bC> integrals:      0.512 (MW) /      4.094 (MB)
	Size of irrep 2 of <iA|bC> integrals:      0.634 (MW) /      5.074 (MB)
	Size of irrep 3 of <iA|bC> integrals:      0.978 (MW) /      7.827 (MB)
	Total:                                     3.265 (MW) /     26.118 (MB)

	Size of irrep 0 of tIjAb amplitudes:       0.084 (MW) /      0.676 (MB)
	Size of irrep 1 of tIjAb amplitudes:       0.022 (MW) /      0.174 (MB)
	Size of irrep 2 of tIjAb amplitudes:       0.039 (MW) /      0.311 (MB)
	Size of irrep 3 of tIjAb amplitudes:       0.062 (MW) /      0.496 (MB)
	Total:                                     0.207 (MW) /      1.657 (MB)

	Nuclear Rep. energy          =     23.80017027039892
	SCF energy                   =   -150.87340929118716
	One-electron energy          =    -85.37668206530381
	Two-electron (AA) energy     =     10.36025801620310
	Two-electron (BB) energy     =      5.46440673178314
	Two-electron (AB) energy     =     21.24112987043967
	Two-electron energy          =     37.06579461842591
	Reference energy             =   -150.87340929118835

*** tstop() called on c5-3.compute.lan at Mon Mar  8 17:40:39 2021
Module time:
	user time   =      50.95 seconds =       0.85 minutes
	system time =       9.27 seconds =       0.15 minutes
	total time  =         18 seconds =       0.30 minutes
Total time:
	user time   =     100.33 seconds =       1.67 minutes
	system time =      10.31 seconds =       0.17 minutes
	total time  =         25 seconds =       0.42 minutes
            **************************
            *                        *
            *        CCENERGY        *
            *                        *
            **************************

    Nuclear Rep. energy (wfn)     =   23.800170270398915
    SCF energy          (wfn)     = -150.873409291187158
    Reference energy    (file100) = -150.873409291188352

    Input parameters:
    -----------------
    Wave function   =     CCSD_T
    Reference wfn   =     UHF
    Brueckner       =     No
    Memory (Mbytes) =     4000.0
    Maxiter         =     50
    R_Convergence   =     1.0e-10
    E_Convergence   =     1.0e-10
    Restart         =     Yes
    DIIS            =     Yes
    AO Basis        =     NONE
    ABCD            =     NEW
    Cache Level     =     2
    Cache Type      =     LRU
    Print Level     =     1
    Num. of threads =     12
    # Amps to Print =     10
    Print MP2 Amps? =     No
    Analyze T2 Amps =     No
    Print Pair Ener =     No
    Local CC        =     No
    SCS-MP2         =     False
    SCSN-MP2        =     False
    SCS-CCSD        =     False

MP2 correlation energy -0.4163822891871223
                Solving CC Amplitude Equations
                ------------------------------
  Iter             Energy              RMS        T1Diag      D1Diag    New D1Diag    D2Diag
  ----     ---------------------    ---------   ----------  ----------  ----------   --------
     0        -0.416382289187122    0.000e+00    0.000000    0.000000    0.000000    0.000000
     1        -0.427130620983147    5.707e-02    0.010597    0.000000    0.000000    0.000000
     2        -0.435241207811811    1.706e-02    0.011088    0.000000    0.000000    0.000000
     3        -0.437399004095084    8.790e-03    0.013014    0.000000    0.000000    0.000000
     4        -0.437272551686261    2.683e-03    0.013423    0.000000    0.000000    0.000000
     5        -0.437263020077762    1.396e-03    0.013616    0.000000    0.000000    0.000000
     6        -0.437292073191825    5.302e-04    0.013643    0.000000    0.000000    0.000000
     7        -0.437295053757605    2.151e-04    0.013637    0.000000    0.000000    0.000000
     8        -0.437295999560779    6.691e-05    0.013632    0.000000    0.000000    0.000000
     9        -0.437296688324747    2.391e-05    0.013632    0.000000    0.000000    0.000000
    10        -0.437295785800673    9.237e-06    0.013631    0.000000    0.000000    0.000000
    11        -0.437295951879041    4.007e-06    0.013631    0.000000    0.000000    0.000000
    12        -0.437295911809421    1.448e-06    0.013631    0.000000    0.000000    0.000000
    13        -0.437295919784712    7.320e-07    0.013631    0.000000    0.000000    0.000000
    14        -0.437295942353123    3.058e-07    0.013631    0.000000    0.000000    0.000000
    15        -0.437295944016442    1.117e-07    0.013631    0.000000    0.000000    0.000000
    16        -0.437295944582404    5.012e-08    0.013631    0.000000    0.000000    0.000000
    17        -0.437295945159201    1.932e-08    0.013631    0.000000    0.000000    0.000000
    18        -0.437295945013818    1.006e-08    0.013631    0.000000    0.000000    0.000000
    19        -0.437295944803174    3.968e-09    0.013631    0.000000    0.000000    0.000000
    20        -0.437295944792405    2.140e-09    0.013631    0.000000    0.000000    0.000000
    21        -0.437295944768879    8.171e-10    0.013631    0.000000    0.000000    0.000000
    22        -0.437295944767351    3.282e-10    0.013631    0.000000    0.000000    0.000000
    23        -0.437295944766393    1.703e-10    0.013631    0.000000    0.000000    0.000000
    24        -0.437295944766225    6.987e-11    0.013631    0.000000    0.000000    0.000000

    Iterations converged.


    Largest TIA Amplitudes:
              5  65        -0.0133723404
              5  67        -0.0111935808
              7  94         0.0103712321
              5  66        -0.0097536795
              4  65        -0.0074683486
              3   1         0.0074220581
              2   3         0.0072011626
              4  66         0.0071569901
              3   5        -0.0056082659
              3   6         0.0053904943

    Largest Tia Amplitudes:
              3  67        -0.0148815363
              2   2         0.0134492972
              3  69        -0.0108072171
              5  96         0.0079591076
              3  66        -0.0076928535
              2   1        -0.0068171472
              2   7         0.0056094209
              2   6        -0.0055809590
              1  25        -0.0054452337
              4 109         0.0054114884

    Largest TIJAB Amplitudes:
      7   4 100  71         0.0142768708
      7   4  55  23        -0.0135916612
      7   2 100  12        -0.0120665973
      4   2  71  12         0.0109604971
      6   5  50   9        -0.0086413648
      7   4  49  23         0.0082522991
      6   5  97  72        -0.0081109912
      7   4  94  71         0.0078509243
      7   4  55   8        -0.0076110934
      7   4 100  82        -0.0074403871

    Largest Tijab Amplitudes:
      5   1  66  56         0.0086753089
      5   1  66  50        -0.0085720288
      5   1  68  56         0.0081617892
      4   3  99  67        -0.0076642517
      5   1  68  50        -0.0074575183
      4   3  99  73        -0.0073421303
      4   2  99   2         0.0071996850
      4   2  99  12         0.0068633126
      4   2 100   9        -0.0067517163
      4   3  51  10        -0.0065076136

    Largest TIjAb Amplitudes:
      7   5 100 103        -0.0219515798
      6   4  97  99        -0.0219086608
      7   5 100 102         0.0186770696
      7   1  55  66        -0.0180646781
      7   5 100  96        -0.0170583092
      7   1  55  68        -0.0168470421
      4   1  23  66        -0.0167764558
      5   3  72  73        -0.0163280145
      4   1  23  68        -0.0156060803
      4   5  71 103         0.0145905749

    SCF energy       (wfn)                    = -150.873409291187158
    Reference energy (file100)                = -150.873409291188352

    Opposite-spin MP2 correlation energy      =   -0.314516207304027
    Same-spin MP2 correlation energy          =   -0.101866081883096
    MP2 correlation energy                    =   -0.416382289187122
      * MP2 total energy                      = -151.289791580375464

    Opposite-spin CCSD correlation energy     =   -0.342182390042511
    Same-spin CCSD correlation energy         =   -0.095113554723714
    CCSD correlation energy                   =   -0.437295944766225
      * CCSD total energy                     = -151.310705235954572

            **************************
            *                        *
            *        CCTRIPLES       *
            *                        *
            **************************


    Wave function   =    CCSD_T
    Reference wfn   =      UHF

    Nuclear Rep. energy (wfn)                =   23.800170270398915
    SCF energy          (wfn)                = -150.873409291187158
    Reference energy    (file100)            = -150.873409291188352
    CCSD energy         (file100)            =   -0.437295944766225
    Total CCSD energy   (file100)            = -151.310705235954572

    Number of ijk index combinations:
    Spin Case AAA:                                  56
    Spin Case BBB:                                  20
    Spin Case AAB:                                 168
    Spin Case ABB:                                 120
    AAA (T) energy                             =   -0.000395918988636
    BBB (T) energy                             =   -0.000202341534571
    AAB (T) energy                             =   -0.006716854103996
    ABB (T) energy                             =   -0.004992066225530
    (T) energy                                   =   -0.012307180852733
      * CCSD(T) total energy                     = -151.323012416807302

Stephenergy -151.3230124168073
    Psi4 stopped on: Monday, 08 March 2021 05:41PM
    Psi4 wall time for execution: 0:01:37.77

*** Psi4 exiting successfully. Buy a developer a beer!
