 --invoking executable--
/apps/eb/cfour/2.1-iompi-2018a-serial/bin/xjoda


   *************************************************************************
         <<<     CCCCCC     CCCCCC   |||     CCCCCC     CCCCCC   >>>
       <<<      CCC        CCC       |||    CCC        CCC         >>>
      <<<      CCC        CCC        |||   CCC        CCC            >>>
    <<<        CCC        CCC        |||   CCC        CCC              >>>
      <<<      CCC        CCC        |||   CCC        CCC            >>>
       <<<      CCC        CCC       |||    CCC        CCC         >>>
         <<<     CCCCCC     CCCCCC   |||     CCCCCC     CCCCCC   >>>
   *************************************************************************

     ****************************************************************
     * CFOUR Coupled-Cluster techniques for Computational Chemistry *
     ****************************************************************
 

   Department of Chemistry                Institut fuer Physikalische Chemie
   University of Florida                  Universitaet Mainz
   Gainesville, FL 32611, USA             D-55099 Mainz, Germany

   Department of Chemistry                Fakultaet fuer Chemie und Biowiss.
   Johns Hopkins University               Karlsruher Institut fuer Technologie
   Baltimore, MD 21218, USA               D-76131 Karlsruhe, Germany

   Department of Chemistry                Department of Physical Chemistry
   Southern Methodist University          Eotvos Lorand University
   Dallas, TX 75275, USA                  H-1053 Budapest, Hungary

 
                       Version 2.1
 
                     c1-1.compute.lan                                  
                     Fri Jan 29 18:30:17 EST 2021                      
                     integer*8 version is running
 
********************************************************************************
*                          Input from ZMAT file                                *
********************************************************************************
CFOUR Optimization JOB                                                          
O   -0.967232850321    0.193736044026    0.000000000000                         
H   -0.776462494895   -0.740123570608    0.000000000000                         
O    0.967232850321   -0.193736044026    0.000000000000                         
H    0.776462494895    0.740123570608    0.000000000000                         
                                                                                
*CFOUR(CALC=CCSDT                                                               
       BASIS=AUG-PVTZ                                                           
       SCF_CONV=12                                                              
       CC_CONV=12                                                               
       SCF_MAXCYC=200                                                           
       CC_MAXCYC=150                                                            
       CC_PROGRAM=MRCC                                                          
       DERIV_LEVEL=1                                                            
       FROZEN_CORE=ON                                                           
       LINEQ_CONV=12                                                            
       OPT_MAXCYC=400                                                           
       REFERENCE=UHF                                                            
       MULTIPLICITY=3                                                           
       COORDINATES=CARTESIAN                                                    
       MEMORY=40                                                                
       MEM_UNIT=GB                                                              
       UNITS=ANGSTROM)                                                          
********************************************************************************
    -------------------------------------------------------------------
                    CFOUR Control Parameters 
    -------------------------------------------------------------------
        External           Internal           Value            Units
          Name               Name
    -------------------------------------------------------------------
       ABCDTYPE             IABCDT         STANDARD    [  0]    ***   
       ANHARMONIC           IANHAR         OFF         [  0]    ***   
       ANH_ALGORIT          IANALG         STANDARD    [  0]    ***   
       ANH_DERIVAT          IANDER         SECOND      [  1]    ***   
       ANH_MODE             ANHMOD         VIBRATION   [  0]    ***   
       ANH_STEPSIZ          ICUBST             50000          x 10-6  
       ANH_SYMMETR          IANHSM         ABELIAN     [  0]    ***   
       AO_LADDERS           IAOLAD         SINGLEPASS  [  1]    ***   
       AV_SCF               IAVSCF         OFF         [  0]    ***   
       BASIS                IBASIS         AUG-PVTZ    [ 34]    ***   
       BOTHVECTORS          BOTHVC         OFF         [  0]    ***   
       BOX_POTENT           IPIAB          OFF         [  0]    ***   
       BREIT                IBREIT         OFF         [  0]    ***   
       BRUCK_CONV           IBRTOL          10D-  4             ***   
       BRUECKNER            IBRKNR         OFF         [  0]    ***   
       BUFFERSIZE           IBUFFS              4096            ***   
       CACHE_RECS           ICHREC             10               ***   
       CALCLEVEL            ICLLVL         CCSDT       [ 18]    ***   
       CCORBOPT             ICCORB         OFF         [  0]  x 0.01  
       CC_CONV              ICCCNV          10D- 12             ***   
       CC_EXPORDER          ICCEOR              5               ***   
       CC_EXTRAPOL          ICCEXT         DIIS        [  1]    ***   
       CC_GUESS             ICCGES         MP2         [  0]    ***   
       CC_MAXCYC            ICCCYC            150              cycles 
       CC_PROGRAM           ICCPRO         MRCC        [  2]    ***   
       CHARGE               ICHRGE              0               ***   
       CHOLESKY             ICHOLE         OFF         [  0]    ***   
       CIS_CONV             ICISTL              5               ***   
       COMM_SIZE            IPSIZE            ***               ***   
       CONSTANT             ICONST         OLD         [  1]    ***   
       CONTINUUM            ICONTU         NONE        [  0]    ***   
       CONTRACTION          ICNTYP         GENERAL     [  1]    ***   
       COORDINATES          ICOORD         CARTESIAN   [  1]    ***   
       CPHF_CONVER          ICPHFT          10D- 16             ***   
       CPHF_MAXCYC          ICPHFC             64              cycles 
       CUBIC                ICUBIC         OFF         [  0]    ***   
       CURVILINEAR          ICURVY         OFF         [  0]    ***   
       DBOC                 IDBOC          OFF         [  0]    ***   
       DCT                  IDCT           OFF         [  0]    ***   
       DERIV_LEV            IDRLVL         FIRST       [  1]    ***   
       DEVMEM_SIZE          IDVMEM         *********           MByte  
       DIAG_MRCC            IEOMST          10D-  0             ***   
       DIFF_TYPE            IDIFTY         RELAXED     [  0]    ***   
       DIRECT               IDIRCT         OFF         [  0]    ***   
       DROPMO               IDRPMO      NONE         
       ECP                  IECP           OFF         [  0]    ***   
       EIGENVECTOR          IVEC                1               ***   
       EL_ANHARM            IELANH         OFF         [  0]    ***   
       EOMFOLLOW            IEOMSR         ENERGY      [  0]    ***   
       EOMIP                IEOMIP         OFF         [  0]    ***   
       EOMLEVEL             HBARFM         SAME        [  0]    ***   
       EOM_MRCC             IMRCCE         NEW         [  1]    ***   
       EOM_NONIT            EOMNON         OFF         [  0]    ***   
       EOM_NSING            IEOMSI          10D-  0             ***   
       EOM_NSTATES          IMRCCD         DAVIDSON    [  0]    ***   
       EOM_NTRIP            IEOMTR          10D-  0             ***   
       EOM_ORDER            IEXORD         ENERGY      [  0]    ***   
       EOM_PROPSTA          IEOMST              0               ***   
       ESTATE_CONV          IEXTOL          10D-  5             ***   
       ESTATE_DIAG          IEXDIG         ITERATIVE   [  0]    ***   
       ESTATE_LOCK          IESLOC         ON          [  1]    ***   
       ESTATE_MAXC          IEXMXC             40               ***   
       ESTATE_PROP          IEXPRP         OFF         [  0]    ***   
       EVAL_HESS            IRECAL              0            # of cyc.
       EXCITATION           IEXCIT              0               ***   
       EXCITE               IEXCIT         NONE        [  0]    ***   
       EXTERN_POT           IEXPOT         OFF         [  0]    ***   
       FCGRADNEW            IFCGNW         OFF         [  0]    ***   
       FC_FIELD             IFINFC              0             x 10-6  
       FD_CALTYPE           IFDCAL         GRADONLY    [  0]    ***   
       FD_PROJECT           IFDPRJ         OFF         [  1]    ***   
       FD_STEPSIZE          IDISFD              0            10-4 bohr
       FD_USEGROUP          IFDGRP         FULL        [  0]    ***   
       FILE_RECSIZ          IFLREC              4096           words  
       FINITE_PERT          IFIPER              0             x 10-6  
       FIXGEOM              IFIXGM         OFF         [  0]    ***   
       FOCK                 IFOCK          AO          [  1]    ***   
       FREQ_ALGORI          IVIALG         STANDARD    [  0]    ***   
       FROZEN_CORE          IFROCO         ON          [  1]    ***   
       GAMMA_ABCD           IGABCD         STORE       [  0]    ***   
       GAMMA_ABCI           IGABCI         STORE       [  0]    ***   
       GENBAS_1             IGNBS1              0               ***   
       GENBAS_2             IGNBS2              0               ***   
       GENBAS_3             IGNBS3              0               ***   
       GENBAS_4             IGNBS4              0               ***   
       GEO_CONV             ICONTL              5              H/bohr 
       GEO_MAXCYC           IOPTCY            400               ***   
       GEO_MAXSTEP          IMXSTP            300            millibohr
       GEO_METHOD           INR            SINGLE_POINT[  5]    ***   
       GIAO                 IGIAO          OFF         [  1]    ***   
       GIMIC                IGIMIC         OFF         [  0]    ***   
       GRID                 IGRID          OFF         [  0]    ***   
       GRID_ALGO            IGALGO         SERIAL      [  0]    ***   
       GUESS                IGUESS         MOREAD      [  0]    ***   
       HBAR                 IHBAR          OFF         [  0]    ***   
       HESS_TYPE            IHESTP         SCF         [  0]    ***   
       HF2_FILE             IHF2Fl         USE         [  1]    ***   
       HFSTABILITY          ISTABL         OFF         [  0]    ***   
       INCORE               INCORE         OFF         [  0]    ***   
       INPUT_MRCC           IMRCC          ON          [  1]    ***   
       INTEGRALS            INTTYP         VMOL        [  1]    ***   
       JODA_PRINT           IJPRNT              0               ***   
       KEYWORD_OUT          IDMPKW         NO          [  0]    ***   
       LINDEP_TOL           ILINDP              8               ***   
       LINEQ_CONV           IZTACN          10D- 12           cycles  
       LINEQ_EXPOR          ILMAXD              5               ***   
       LINEQ_MAXCY          ILMAXC            100               ***   
       LINEQ_TYPE           ILTYPE         DIIS        [  1]    ***   
       LOCK_ORBOCC          ILOCOC         OFF         [  0]    ***   
       MEMORY_SIZE          IMEMSZ         *********           words  
       MEM_UNIT             IMEMU          GB          [  3]    ***   
       MRCC                 IMRCCC         OFF         [  0]    ***   
       MULTIPLICTY          IMULTP              3               ***   
       NACOUPLING           IVCOUP         OFF         [  0]    ***   
       NEGEVAL              IDIE           ABORT       [  0]    ***   
       NEWNORM              INEWNO         OFF         [  0]    ***   
       NON-HF               INONHF         OFF         [  0]    ***   
       NTOP_TAMP            ITOPT2             15               ***   
       NUC_MODEL            INUCMO         POINT       [  0]    ***   
       OCCUPATION           IOCCU   ESTIMATED BY SCF 
       OPEN-SHELL           IOPEN          SPIN-ORBITAL[  0]    ***   
       OPTVIB               IOPTVB         OFF         [  0]    ***   
       ORBITALS             IORBTP         STANDARD    [  0]    ***   
       PARALLEL             IPARAL         ON          [  1]    ***   
       PARA_INT             IPINTS         ON          [  1]    ***   
       PARA_PRINT           IPPRIN              0               ***   
       PERT_ORB             IPTORB         CANONICAL   [  1]    ***   
       POINTS               IGRDFD              0               ***   
       PRINT                IPRNT               0               ***   
       PROPS                IPROPS         OFF         [  0]    ***   
       PROP_INTEGR          IINTYP         INTERNAL    [  0]    ***   
       PSI                  IPSI           OFF         [  0]    ***   
       QC_ALG               IQCALG         FLM         [  0]    ***   
       QC_LINALG            IQCLIN         TRIDIAG     [  2]    ***   
       QC_MAXCYC            IQCMAX          10D-100           cycles  
       QC_MAXSCFCY          IQCMSC          10D- 15           cycles  
       QC_RTRUST            IQCRTR          10D-  0           x 10-3  
       QC_SKIPSCF           IQCSKI         OFF         [  0]    ***   
       QC_START             IQCSTA          10D-  1             ***   
       QRHFGUESS            IQGUES         OFF         [  0]    ***   
       QUARTIC              IQUART         OFF         [  0]    ***   
       RAMAN_INT            IRAMIN         OFF         [  0]    ***   
       RAMAN_ORB            IRAMRE         UNRELAXED   [  0]    ***   
       RDO                  IRDOFM         ON          [  1]    ***   
       REDUCE_REPR          REDREP         Ir          [  0]    ***   
       REFERENCE            IREFNC         UHF         [  1]    ***   
       RELATIVIST           IRELAT         OFF         [  0]    ***   
       RELAX_DENS           IRDENS         ON          [  1]    ***   
       RESET_FLAGS          IRESET         OFF         [  0]    ***   
       RESTART_CC           ICCRES         OFF         [  0]    ***   
       ROT_EVEC             ROTVEC              0               ***   
       SAVE_INTS            ISVINT         OFF         [  0]    ***   
       SCALE_ON             ISTCRT              0               ***   
       SCF_CONV             ISCFCV          10D- 12             ***   
       SCF_DAMPING          IDAMP               0             x 10-3  
       SCF_EXPORDE          IRPPOR              6               ***   
       SCF_EXPSTAR          IRPPLS              8               ***   
       SCF_EXTRAPO          IRPP           ON          [  1]    ***   
       SCF_MAXCYC           ISCFCY            200              cycles 
       SCF_NOSTOP           ISCFST         OFF         [  0]    ***   
       SCF_PRINT            ISCFPR              0               ***   
       SCF_PROG             ISCFPR         SCF         [  0]    ***   
       SD_FIELD             IFINSD              0             x 10-6  
       SOPERT               IPERSO         OFF         [  0]    ***   
       SPHERICAL            IDFGHI         ON          [  1]    ***   
       SPINORBIT            ISOCAL         OFF         [  0]    ***   
       SPINROTATIO          ISRCON         OFF         [  0]    ***   
       SPIN_FLIP            ISPFLP         OFF         [  0]    ***   
       SPIN_ORBIT           ISPORB         OFF         [  0]    ***   
       SPIN_SCAL            ISCSMP         OFF         [  0]    ***   
       STEEPSCALE           ISTPSC              1000          x 10-3  
       SUBGROUP             ISUBGP         DEFAULT     [  0]    ***   
       SUBGRPAXIS           ISBXYZ         X           [  0]    ***   
       SYMMETRY             ISYM           ON          [  0]    ***   
       SYM_CHECK            ISYMCK         OVERRIDE    [  1]    ***   
       T3_EXTRAPOL          IT3EXT         OFF         [  0]    ***   
       T4_EXTRAPOL          IT4EXP         OFF         [  0]    ***   
       TAMP_SUM             IEVERY              5               ***   
       TESTSUITE            ITESTS         OFF         [  0]    ***   
       THERMOCH             ITHERM         OFF         [  0]    ***   
       TOL_CHOLESK          ITOLCH          10D-  4             ***   
       TRANGRAD             IRESRM         OFF         [  0]    ***   
       TRANS_INV            ITRAIN         USE         [  0]    ***   
       TREAT_PERT           ITREAT         SIMULTANEOUS[  0]    ***   
       TRIP_ALGORI          ITRALG         NORMAL      [  0]    ***   
       UIJ_THRESHO          IUIJTH              1               ***   
       UNITS                IUNITS         ANGSTROM    [  0]    ***   
       UNOS                 IUNOS          OFF         [  0]    ***   
       UPDATE_HESS          IHUPDT         ON          [  1]    ***   
       VIBPHASE             ISETPH         STANDARD    [  0]    ***   
       VIBRATION            IVIB           NO          [  0]    ***   
       VIB_ALGORIT          IGEALG         STANDARD    [  0]    ***   
       VNATORB              IVNORB         OFF         [  0]    ***   
       VTRAN                IVTRAN         FULL/PARTIAL[  0]    ***   
       XFIELD               IXEFLD              0             x 10-6  
       XFORM_TOL            IXFTOL          10D- 11             ***   
       YFIELD               IYEFLD              0             x 10-6  
       ZFIELD               IZEFLD              0             x 10-6  
       ZSCALE_EXP           IZEXPS         OFF         [  0]    ***   
    -------------------------------------------------------------------
  @GETXYZ-I,     4 atoms read from ZMAT.
   Rotational constants (in cm-1): 
          0.5039981772             0.5279164939            11.1240667440
   Rotational constants (in MHz): 
      15109.4873548642         15826.5405488191        333491.1779343644
********************************************************************************
   The full molecular point group is C2h .
   The largest Abelian subgroup of the full molecular point group is C2h .
   The computational point group is C2h .
********************************************************************************


 ----------------------------------------------------------------
         Coordinates used in calculation (QCOMP) 
 ----------------------------------------------------------------
 Z-matrix   Atomic            Coordinates (in bohr)
  Symbol    Number           X              Y              Z
 ----------------------------------------------------------------
     O         8        -1.86291093     0.06686733     0.00000000
     H         1        -1.22281716    -1.61674418     0.00000000
     O         8         1.86291093    -0.06686733     0.00000000
     H         1         1.22281716     1.61674418     0.00000000
 ----------------------------------------------------------------
 
   Interatomic distance matrix (Angstroms) 
 
                 O             H             O             H    
                [ 1]        [ 2]        [ 3]        [ 4]
  O    [ 1]     0.00000
  H    [ 2]     0.95315     0.00000
  O    [ 3]     1.97289     1.82730     0.00000
  H    [ 4]     1.82730     2.14539     0.95315     0.00000
 rotcon2
   Rotational constants (in cm-1): 
         11.1240667440             0.5279164939             0.5039981772
   Rotational constants (in MHz): 
     333491.1779343647         15826.5405488191         15109.4873548642
  There are   2 frozen-core orbitals.
  There are   2 frozen-core orbitals.
  There are  138 basis functions.
 @CHECKOUT-I, Total execution time (CPU/WALL):        0.16/       0.20 seconds.
--executable xjoda finished with status     0 in        0.22 seconds (walltime).
 --invoking executable--
/apps/eb/cfour/2.1-iompi-2018a-serial/bin/xvmol
 SERIAL VERSION OF MOLECULE STARTED
********************************************************************************
                    INPUT FROM MOL FILE
********************************************************************************
INTGRL        1    0    1    0    0    0    0    0    0                         
         *** CFOUR Program System (Release V0.1) ***                            
CFOUR Optimization JOB                                                          
    2    2 Z  XY      0.10E-08              0    0                              
   9999.00      3.00                                                            
          8.00000000    1    4    1    1    1    1                              
O #1  -1.862910928876717   0.066867326029939   0.000000000000000                
   11    5                                                                      
   15330.0000000000       5.080000000000000E-004 -1.150000000000000E-004        
  0.000000000000000E+000  0.000000000000000E+000  0.000000000000000E+000        
   2299.00000000000       3.929000000000000E-003 -8.950000000000000E-004        
  0.000000000000000E+000  0.000000000000000E+000  0.000000000000000E+000        
   522.400000000000       2.024300000000000E-002 -4.636000000000000E-003        
  0.000000000000000E+000  0.000000000000000E+000  0.000000000000000E+000        
   147.300000000000       7.918100000000000E-002 -1.872400000000000E-002        
  0.000000000000000E+000  0.000000000000000E+000  0.000000000000000E+000        
   47.5500000000000       0.230687000000000      -5.846300000000000E-002        
  0.000000000000000E+000  0.000000000000000E+000  0.000000000000000E+000        
   16.7600000000000       0.433118000000000      -0.136463000000000             
  0.000000000000000E+000  0.000000000000000E+000  0.000000000000000E+000        
   6.20700000000000       0.350260000000000      -0.175740000000000             
  0.000000000000000E+000  0.000000000000000E+000  0.000000000000000E+000        
   1.75200000000000       4.272800000000000E-002  0.160934000000000             
   1.00000000000000       0.000000000000000E+000  0.000000000000000E+000        
  0.688200000000000      -8.154000000000000E-003  0.603418000000000             
  0.000000000000000E+000  0.000000000000000E+000  0.000000000000000E+000        
  0.238400000000000       2.381000000000000E-003  0.378765000000000             
  0.000000000000000E+000   1.00000000000000       0.000000000000000E+000        
  7.376000000000001E-002  0.000000000000000E+000  0.000000000000000E+000        
  0.000000000000000E+000  0.000000000000000E+000   1.00000000000000             
    6    4                                                                      
   34.4600000000000       1.592800000000000E-002  0.000000000000000E+000        
  0.000000000000000E+000  0.000000000000000E+000                                
   7.74900000000000       9.974000000000000E-002  0.000000000000000E+000        
  0.000000000000000E+000  0.000000000000000E+000                                
   2.28000000000000       0.310492000000000       0.000000000000000E+000        
  0.000000000000000E+000  0.000000000000000E+000                                
  0.715600000000000       0.491026000000000        1.00000000000000             
  0.000000000000000E+000  0.000000000000000E+000                                
  0.214000000000000       0.336337000000000       0.000000000000000E+000        
   1.00000000000000       0.000000000000000E+000                                
  5.974000000000000E-002  0.000000000000000E+000  0.000000000000000E+000        
  0.000000000000000E+000   1.00000000000000                                     
    3    3                                                                      
   2.31400000000000        1.00000000000000       0.000000000000000E+000        
  0.000000000000000E+000                                                        
  0.645000000000000       0.000000000000000E+000   1.00000000000000             
  0.000000000000000E+000                                                        
  0.214000000000000       0.000000000000000E+000  0.000000000000000E+000        
   1.00000000000000                                                             
    2    2                                                                      
   1.42800000000000        1.00000000000000       0.000000000000000E+000        
  0.500000000000000       0.000000000000000E+000   1.00000000000000             
          1.00000000    1    3    1    1    1                                   
H #2  -1.222817163896864  -1.616744175914036   0.000000000000000                
    6    4                                                                      
   33.8700000000000       6.068000000000000E-003  0.000000000000000E+000        
  0.000000000000000E+000  0.000000000000000E+000                                
   5.09500000000000       4.530800000000000E-002  0.000000000000000E+000        
  0.000000000000000E+000  0.000000000000000E+000                                
   1.15900000000000       0.202822000000000       0.000000000000000E+000        
  0.000000000000000E+000  0.000000000000000E+000                                
  0.325800000000000       0.503903000000000        1.00000000000000             
  0.000000000000000E+000  0.000000000000000E+000                                
  0.102700000000000       0.383421000000000       0.000000000000000E+000        
   1.00000000000000       0.000000000000000E+000                                
  2.526000000000000E-002  0.000000000000000E+000  0.000000000000000E+000        
  0.000000000000000E+000   1.00000000000000                                     
    3    3                                                                      
   1.40700000000000        1.00000000000000       0.000000000000000E+000        
  0.000000000000000E+000                                                        
  0.388000000000000       0.000000000000000E+000   1.00000000000000             
  0.000000000000000E+000                                                        
  0.102000000000000       0.000000000000000E+000  0.000000000000000E+000        
   1.00000000000000                                                             
    2    2                                                                      
   1.05700000000000        1.00000000000000       0.000000000000000E+000        
  0.247000000000000       0.000000000000000E+000   1.00000000000000             
FINISH                                                                          
 
********************************************************************************
 ONE- AND TWO-ELECTRON INTEGRALS OVER SYMMETRY-ADAPTED AOS ARE CALCULATED.

  SPHERICAL HARMONICS ARE USED.
  
  INTEGRALS LESS THAN  0.10E-13 ARE NEGLECTED.

  NUCLEAR REPULSION ENERGY :   30.9295913323 A.U.
  @MOLECU-I, ONE ELECTRON INTEGRALS (CPU/WALL):        0.03/       0.03 SECONDS.
  @TWOEL-I,    1246094 INTEGRALS OF SYMMETRY TYPE  I I I I
  @TWOEL-I,    4620815 INTEGRALS OF SYMMETRY TYPE  I J I J
  @TWOEL-I,    2438161 INTEGRALS OF SYMMETRY TYPE  I I J J
  @TWOEL-I,    3358092 INTEGRALS OF SYMMETRY TYPE  I J K L
  @TWOEL-I, TOTAL NUMBER OF 2-E INTEGRALS   11663162.
  @MOLECU-I, TWO ELECTRON INTEGRALS (CPU/WALL):        2.91/       3.08 SECONDS.
 @CHECKOUT-I, Total execution time (CPU/WALL):        2.95/       3.12 seconds.

Running with 12 threads/proc

--executable xvmol finished with status     0 in        3.16 seconds (walltime).
 --invoking executable--
/apps/eb/cfour/2.1-iompi-2018a-serial/bin/xvmol2ja
 @GETMEM-I,  Allocated   38146 MB of main memory.
 @CHECKOUT-I, Total execution time (CPU/WALL):        0.01/       0.01 seconds.
--executable xvmol2ja finished with status     0 in        0.06 seconds (walltime).
 --invoking executable--
/apps/eb/cfour/2.1-iompi-2018a-serial/bin/xvscf
  There are  138 functions in the AO basis.

  There are 4 irreducible representations.

       Irrep        # of functions
         1                 46
         2                 23
         3                 46
         4                 23


  Parameters for SCF calculation: 
        SCF reference function:  UHF  
  Maximum number of iterations:  200
     Full symmetry point group: C2h 
     Computational point group: C2h 
        Initial density matrix: CORE                   
     SCF convergence tolerance: 10**(-12)
  DIIS convergence acceleration:  ON
          Latest start for DIIS:   8
                     DIIS order:   6

  Memory information:     904766 words required.
  Fock matrices are constructed from AO integral file.
 @GETMEM-I,  Allocated       6 MB of main memory.
  Initialization and symmetry analysis required      0.002 seconds.

  @INITGES-I, Occupancies from core Hamiltonian:

          Alpha population by irrep:   4    1    4    1
           Beta population by irrep:   3    1    3    1


 total no. of electrons in initial guess :  0.000000000000000E+000
 total no. of electrons in initial guess :  0.000000000000000E+000
  --------------------------------------------------------------------
  Iteration         Total Energy            Largest Density Difference
  --------------------------------------------------------------------
       0            30.929591332342145              0.0000000000D+00
   current occupation vector 
     4  1  4  1
     3  1  3  1
       1          -128.520801360787942              0.3015624926D+01
   current occupation vector 
     4  1  4  1
     3  1  3  1
       2          -128.717773311232150              0.2197931082D+02
   current occupation vector 
     5  1  4  0
     3  1  4  0
       3          -144.703896140119127              0.2200092074D+02
   current occupation vector 
     4  1  4  1
     3  1  3  1
       4          -140.555444238881080              0.7299817638D+01
   current occupation vector 
     5  1  4  0
     3  1  4  0
       5          -147.630792084390293              0.7299917844D+01
   current occupation vector 
     4  1  4  1
     3  1  3  1
       6          -146.414681093462804              0.6268825501D+01
   current occupation vector 
     5  1  4  0
     4  1  3  0
       7          -149.382256989481931              0.6268232151D+01
   current occupation vector 
     4  1  4  1
     3  1  3  1
       8          -150.376381883400398              0.5551246024D+00
   current occupation vector 
     4  1  4  1
     3  1  3  1
       9          -150.787349326477226              0.1673291912D+00
   current occupation vector 
     4  1  4  1
     3  1  3  1
      10          -150.793206921018282              0.1711437258D-01
   current occupation vector 
     4  1  4  1
     3  1  3  1
      11          -150.797202672435105              0.1650289727D-01
   current occupation vector 
     4  1  4  1
     3  1  3  1
      12          -150.801021935357539              0.2550111796D-01
   current occupation vector 
     4  1  4  1
     3  1  3  1
      13          -150.801812524431682              0.1288026528D-01
   current occupation vector 
     4  1  4  1
     3  1  3  1
      14          -150.801881854942565              0.4607397142D-02
   current occupation vector 
     4  1  4  1
     3  1  3  1
      15          -150.801883387261739              0.5186602488D-03
   current occupation vector 
     4  1  4  1
     3  1  3  1
      16          -150.801883575026295              0.2017438122D-03
   current occupation vector 
     4  1  4  1
     3  1  3  1
      17          -150.801883583257137              0.4102882520D-04
   current occupation vector 
     4  1  4  1
     3  1  3  1
      18          -150.801883583957732              0.1178968842D-04
   current occupation vector 
     4  1  4  1
     3  1  3  1
      19          -150.801883584133407              0.5378099099D-05
   current occupation vector 
     4  1  4  1
     3  1  3  1
      20          -150.801883584175528              0.2758233258D-05
   current occupation vector 
     4  1  4  1
     3  1  3  1
      21          -150.801883584181155              0.1066222356D-05
   current occupation vector 
     4  1  4  1
     3  1  3  1
      22          -150.801883584184196              0.4866946180D-06
   current occupation vector 
     4  1  4  1
     3  1  3  1
      23          -150.801883584184509              0.4157550841D-06
   current occupation vector 
     4  1  4  1
     3  1  3  1
      24          -150.801883584183656              0.1570455737D-06
   current occupation vector 
     4  1  4  1
     3  1  3  1
      25          -150.801883584184253              0.3844337648D-07
   current occupation vector 
     4  1  4  1
     3  1  3  1
      26          -150.801883584184566              0.1402227834D-07
   current occupation vector 
     4  1  4  1
     3  1  3  1
      27          -150.801883584183770              0.9083118702D-08
   current occupation vector 
     4  1  4  1
     3  1  3  1
      28          -150.801883584184196              0.1623476742D-08
   current occupation vector 
     4  1  4  1
     3  1  3  1
      29          -150.801883584182804              0.3060499076D-09
   current occupation vector 
     4  1  4  1
     3  1  3  1
      30          -150.801883584184253              0.1939411964D-09
   current occupation vector 
     4  1  4  1
     3  1  3  1
      31          -150.801883584184651              0.8826145370D-10
   current occupation vector 
     4  1  4  1
     3  1  3  1
      32          -150.801883584182519              0.3784661473D-10
   current occupation vector 
     4  1  4  1
     3  1  3  1
      33          -150.801883584181923              0.1762817670D-10
   current occupation vector 
     4  1  4  1
     3  1  3  1
      34          -150.801883584183230              0.5950975823D-11
   current occupation vector 
     4  1  4  1
     3  1  3  1
      35          -150.801883584181127              0.4521660824D-11
   current occupation vector 
     4  1  4  1
     3  1  3  1
      36          -150.801883584182519              0.4200528814D-11
   current occupation vector 
     4  1  4  1
     3  1  3  1
      37          -150.801883584182633              0.3009086036D-11
   current occupation vector 
     4  1  4  1
     3  1  3  1
      38          -150.801883584183059              0.1437086561D-11
   current occupation vector 
     4  1  4  1
     3  1  3  1
      39          -150.801883584183059              0.2733431537D-11
   current occupation vector 
     4  1  4  1
     3  1  3  1
      40          -150.801883584181923              0.4191091918D-11
   current occupation vector 
     4  1  4  1
     3  1  3  1
      41          -150.801883584182633              0.1192497490D-11
   current occupation vector 
     4  1  4  1
     3  1  3  1
      42          -150.801883584182718              0.6473044323D-11
   current occupation vector 
     4  1  4  1
     3  1  3  1
      43          -150.801883584182804              0.3262806691D-11
   current occupation vector 
     4  1  4  1
     3  1  3  1
      44          -150.801883584181866              0.8208760061D-11
   current occupation vector 
     4  1  4  1
     3  1  3  1
      45          -150.801883584181923              0.1739462741D-11
   current occupation vector 
     4  1  4  1
     3  1  3  1
      46          -150.801883584183003              0.2220515438D-11
   current occupation vector 
     4  1  4  1
     3  1  3  1
      47          -150.801883584182463              0.2224748163D-11
   current occupation vector 
     4  1  4  1
     3  1  3  1
      48          -150.801883584182178              0.3589815945D-11
   current occupation vector 
     4  1  4  1
     3  1  3  1
      49          -150.801883584182178              0.1012849526D-11
   current occupation vector 
     4  1  4  1
     3  1  3  1
      50          -150.801883584181667              0.2588020076D-11
   current occupation vector 
     4  1  4  1
     3  1  3  1
      51          -150.801883584182718              0.7614131547D-11
   current occupation vector 
     4  1  4  1
     3  1  3  1
      52          -150.801883584183656              0.5909735201D-10
   current occupation vector 
     4  1  4  1
     3  1  3  1
      53          -150.801883584183287              0.7002236985D-10
   current occupation vector 
     4  1  4  1
     3  1  3  1
      54          -150.801883584183827              0.3149343980D-10
   current occupation vector 
     4  1  4  1
     3  1  3  1
      55          -150.801883584182121              0.1002920663D-10
   current occupation vector 
     4  1  4  1
     3  1  3  1
      56          -150.801883584183344              0.4422033052D-11
   current occupation vector 
     4  1  4  1
     3  1  3  1
      57          -150.801883584182832              0.2031562418D-11
   current occupation vector 
     4  1  4  1
     3  1  3  1
      58          -150.801883584182832              0.2330374609D-11
   current occupation vector 
     4  1  4  1
     3  1  3  1

  SCF has converged.

 Density matrix saved to file den.dat
 total alpha spin electron number:   10.0000000000000     
 total  beta spin electron number:   8.00000000000002     
     E(SCF)=      -150.801883584182718              0.5378301970D-12

  Eigenvector printing suppressed.


       The average multiplicity is    3.0106674
  The expectation value of S**2 is    2.0160296

 @PUTMOS-I, Writing converged MOs to NEWMOS. 
 @PUTMOS-I, Symmetry   1 Full Blocks 11 Partial Blocksize   2
 @PUTMOS-I, Symmetry   2 Full Blocks  5 Partial Blocksize   3
 @PUTMOS-I, Symmetry   3 Full Blocks 11 Partial Blocksize   2
 @PUTMOS-I, Symmetry   4 Full Blocks  5 Partial Blocksize   3
 @PUTFOCK-I, Writing converged Fock matrix to NEWFOCK. 
 @PUTFOCK-I, Symmetry   1 Full Blocks 11 Partial Blocksize   2
 @PUTFOCK-I, Symmetry   2 Full Blocks  5 Partial Blocksize   3
 @PUTFOCK-I, Symmetry   3 Full Blocks 11 Partial Blocksize   2
 @PUTFOCK-I, Symmetry   4 Full Blocks  5 Partial Blocksize   3


 
  ORBITAL EIGENVALUES (ALPHA)  (1H = 27.2113834 eV)

       MO #        E(hartree)               E(eV)           FULLSYM    COMPSYM
       ----   --------------------   --------------------   -------   ---------
    1    70         -20.6341156829        -561.4828329666      Bu        Bu (3)
    2     1         -20.6340702235        -561.4815959534      Ag        Ag (1)
    3     2          -1.4570913698         -39.6494719112      Ag        Ag (1)
    4    71          -1.3663670672         -37.1807381313      Bu        Bu (3)
    5     3          -0.7532317633         -20.4964782999      Ag        Ag (1)
    6    72          -0.7372270675         -20.0609683868      Bu        Bu (3)
    7     4          -0.6577686944         -17.8987961327      Ag        Ag (1)
    8    47          -0.5984063157         -16.2834636849      Au        Au (2)
    9    73          -0.5839728891         -15.8907101799      Bu        Bu (3)
   10   116          -0.5414246663         -14.7329141771      Bg        Bg (4)
  +++++++++++++++++++++++++++++++++++++++++++++++++++++++++++++++++++++++++++++
   11     5           0.0338124986           0.9200848642      Ag        Ag (1)
   12    74           0.0461228436           1.2550663803      Bu        Bu (3)
   13    75           0.1174311637           3.1954644182      Bu        Bu (3)
   14    48           0.1443782062           3.9287307241      Au        Au (2)
   15     6           0.1523729511           4.1462787913      Ag        Ag (1)
   16     7           0.1597035737           4.3457551753      Ag        Ag (1)
   17    76           0.1804970443           4.9115742739      Bu        Bu (3)
   18     8           0.1931737731           5.2565256027      Ag        Ag (1)
   19   117           0.1997637423           5.4358477817      Bg        Bg (4)
   20   118           0.2581755342           7.0253134461      Bg        Bg (4)
   21     9           0.2697993276           7.3416129441      Ag        Ag (1)
   22    77           0.2769010846           7.5348615771      Bu        Bu (3)
   23    78           0.3146243610           8.5613641129      Bu        Bu (3)
   24    49           0.3440015014           9.3607567452      Au        Au (2)
   25    79           0.3560002219           9.6872585285      Bu        Bu (3)
   26    10           0.4118867000          11.2080069117      Ag        Ag (1)
   27    11           0.4459070472          12.1337476211      Ag        Ag (1)
   28    80           0.4505184754          12.2592309621      Bu        Bu (3)
   29    81           0.6274458960          17.0736708375      Bu        Bu (3)
   30    50           0.6557104867          17.8427894539      Au        Au (2)
   31    12           0.6566428936          17.8681615337      Ag        Ag (1)
   32   119           0.6870211020          18.6947946114      Bg        Bg (4)
   33    82           0.7266677943          19.7736359540      Bu        Bu (3)
   34    51           0.7434699575          20.2308460591      Au        Au (2)
   35    83           0.7731072423          21.0373175808      Bu        Bu (3)
   36    13           0.7863532167          21.3977588674      Ag        Ag (1)
   37    14           0.8277821182          22.5250965902      Ag        Ag (1)
   38   120           0.8463239219          23.0296447205      Bg        Bg (4)
   39    84           0.8566917892          23.3117687329      Bu        Bu (3)
   40    52           0.8968888142          24.4055853905      Au        Au (2)
   41    15           0.9271336434          25.2285890347      Ag        Ag (1)
   42    16           0.9526680711          25.9234161364      Ag        Ag (1)
   43    53           0.9577601633          26.0619790099      Au        Au (2)
   44   121           0.9652622390          26.2661208682      Bg        Bg (4)
   45    85           0.9744111214          26.5150746143      Bu        Bu (3)
   46    17           0.9972230014          27.1358174261      Ag        Ag (1)
   47   122           1.0147079343          27.6116066384      Bg        Bg (4)
   48    18           1.0390473946          28.2739170261      Ag        Ag (1)
   49    86           1.0410230038          28.3276760843      Bu        Bu (3)
   50    19           1.1844852776          32.2314830213      Ag        Ag (1)
   51   123           1.1847976759          32.2399838112      Bg        Bg (4)
   52    87           1.1979458869          32.5977648199      Bu        Bu (3)
   53    88           1.2259584696          33.3600259484      Bu        Bu (3)
   54    54           1.2894102373          35.0866363267      Au        Au (2)
   55    89           1.3917317665          37.8709466877      Bu        Bu (3)
   56    20           1.4299738665          38.9115671333      Ag        Ag (1)
   57    90           1.4631084048          39.8132037585      Bu        Bu (3)
   58   124           1.4886292696          40.5076617953      Bg        Bg (4)
   59    55           1.5590055484          42.4226976992      Au        Au (2)
   60    21           1.5673451968          42.6496310695      Ag        Ag (1)
   61    22           1.8019580305          49.0337708387      Ag        Ag (1)
   62    56           1.8992100981          51.6801341355      Au        Au (2)
   63    91           1.9369468892          52.7070044282      Bu        Bu (3)
   64    23           2.0307967115          55.2607879253      Ag        Ag (1)
   65    24           2.1028716180          57.2220458372      Ag        Ag (1)
   66    92           2.1794104555          59.3047734918      Bu        Bu (3)
   67   125           2.2094027433          60.1209051322      Bg        Bg (4)
   68    57           2.2286702227          60.6451999009      Au        Au (2)
   69    25           2.2311977514          60.7139774543      Ag        Ag (1)
   70    93           2.2340319675          60.7911003958      Bu        Bu (3)
   71   126           2.2830819048          62.1258170452      Bg        Bg (4)
   72    58           2.3404584534          63.6871123077      Au        Au (2)
   73    94           2.3799791958          64.7625263800      Bu        Bu (3)
   74    59           2.3826632452          64.8355630775      Au        Au (2)
   75   127           2.4077959397          65.5194584634      Bg        Bg (4)
   76    26           2.4106931323          65.5982950836      Ag        Ag (1)
   77    95           2.4227482651          65.9263319235      Bu        Bu (3)
   78    27           2.4963703189          67.9296898551      Ag        Ag (1)
   79    96           2.5091377959          68.2771105665      Bu        Bu (3)
   80    28           2.5991340951          70.7260343697      Ag        Ag (1)
   81    97           2.6420835834          71.8947493639      Bu        Bu (3)
   82    29           2.7143155996          73.8602824490      Ag        Ag (1)
   83   128           2.7655231118          75.2537096957      Bg        Bg (4)
   84    60           2.7920907122          75.9766508564      Au        Au (2)
   85    98           2.8256109183          76.8887820357      Bu        Bu (3)
   86   129           2.8556665949          77.7066385764      Bg        Bg (4)
   87    30           2.8982825732          78.8662783020      Ag        Ag (1)
   88    99           3.3520553575          91.2140635111      Bu        Bu (3)
   89    31           3.7072007199         100.8780601304      Ag        Ag (1)
   90   100           3.7860989492         103.0249900970      Bu        Bu (3)
   91    61           4.0932094622         111.3818920112      Au        Au (2)
   92   130           4.1306037317         112.3994418178      Bg        Bg (4)
   93    62           4.1384834617         112.6138601710      Au        Au (2)
   94   131           4.1730782204         113.5552314124      Bg        Bg (4)
   95    32           4.2522896829         115.7106848901      Ag        Ag (1)
   96   101           4.2772059441         116.3886908248      Bu        Bu (3)
   97   132           4.3163275347         117.4532434262      Bg        Bg (4)
   98   102           4.3624368376         118.7079413460      Bu        Bu (3)
   99    63           4.4019140150         119.7821699563      Au        Au (2)
  100    33           4.4922935028         122.2415208489      Ag        Ag (1)
  101   103           4.6292949415         125.9695195240      Bu        Bu (3)
  102    34           4.7148466951         128.2975010923      Ag        Ag (1)
  103   104           4.7573316977         129.4535767864      Bu        Bu (3)
  104    35           5.0748183040         138.0928265555      Ag        Ag (1)
  105   105           5.1983539914         141.4544035099      Bu        Bu (3)
  106    36           5.2019960707         141.5535095245      Ag        Ag (1)
  107    64           5.3134817626         144.5871894300      Au        Au (2)
  108    37           5.3683190955         146.0793891205      Ag        Ag (1)
  109   133           5.3933903154         146.7616116993      Bg        Bg (4)
  110   106           5.6119299942         152.7083786860      Bu        Bu (3)
  111   107           6.1999565124         168.7093937235      Bu        Bu (3)
  112    38           6.2104386724         168.9946277960      Ag        Ag (1)
  113    65           6.5769589377         178.9681512587      Au        Au (2)
  114    66           6.6133396375         179.9581204313      Au        Au (2)
  115   108           6.6194989846         180.1257247853      Bu        Bu (3)
  116   134           6.6551165056         181.0949268062      Bg        Bg (4)
  117    39           6.6971076900         182.2375650238      Ag        Ag (1)
  118   135           6.7187253288         182.8258108819      Bg        Bg (4)
  119   109           6.7677797678         184.1606500289      Bu        Bu (3)
  120    40           6.9274383513         188.5051809569      Ag        Ag (1)
  121    41           6.9964088528         190.3819637161      Ag        Ag (1)
  122    67           7.0101465932         190.7557866373      Au        Au (2)
  123   136           7.0975218616         193.1333885647      Bg        Bg (4)
  124    42           7.1687334743         195.0711550623      Ag        Ag (1)
  125    68           7.1716197882         195.1496956570      Au        Au (2)
  126   110           7.2185534420         196.4268253050      Bu        Bu (3)
  127   137           7.2208336912         196.4888740388      Bg        Bg (4)
  128   111           7.2534706757         197.3769715364      Bu        Bu (3)
  129   138           7.2686494124         197.7900059608      Bg        Bg (4)
  130    69           7.2726306029         197.8983396632      Au        Au (2)
  131    43           7.3313284084         199.4955881533      Ag        Ag (1)
  132   112           7.4984235297         204.0424775624      Bu        Bu (3)
  133    44           7.6536965762         208.2676719624      Ag        Ag (1)
  134   113           7.6544584296         208.2884030473      Bu        Bu (3)
  135    45           7.9120666041         215.2982778492      Ag        Ag (1)
  136   114           8.3170023949         226.3171409068      Bu        Bu (3)
  137    46          13.9113788056         378.5478623023      Ag        Ag (1)
  138   115          15.0170407108         408.6344523137      Bu        Bu (3)


 
  ORBITAL EIGENVALUES ( BETA)  (1H = 27.2113834 eV)

       MO #        E(hartree)               E(eV)           FULLSYM    COMPSYM
       ----   --------------------   --------------------   -------   ---------
    1    70         -20.5914435130        -560.3216641927     E          Bu (3)
    2     1         -20.5914434068        -560.3216613018     E          Ag (1)
    3     2          -1.2911310789         -35.1334628081      Ag        Ag (1)
    4    71          -1.1963523868         -32.5544034792      Bu        Bu (3)
    5    72          -0.6843291044         -18.6215416324      Bu        Bu (3)
    6     3          -0.6169596752         -16.7883262631      Ag        Ag (1)
    7    47          -0.5495086709         -14.9528911245      Au        Au (2)
    8   116          -0.4893883421         -13.3169338072      Bg        Bg (4)
  +++++++++++++++++++++++++++++++++++++++++++++++++++++++++++++++++++++++++++++
    9     4           0.0188828495           0.5138284577      Ag        Ag (1)
   10     5           0.0409427909           1.1141099801      Ag        Ag (1)
   11    73           0.0435186182           1.1842018055      Bu        Bu (3)
   12    74           0.1107454200           3.0135360836      Bu        Bu (3)
   13    48           0.1465812620           3.9886789187      Au        Au (2)
   14    75           0.1520629192           4.1378423960      Bu        Bu (3)
   15     6           0.1581975821           4.3047750601      Ag        Ag (1)
   16     7           0.1712460312           4.6598414114      Ag        Ag (1)
   17     8           0.1994903094           5.4284072946      Ag        Ag (1)
   18   117           0.2011953117           5.4748027652      Bg        Bg (4)
   19   118           0.2580957888           7.0231434638      Bg        Bg (4)
   20     9           0.2712036264           7.3798258567      Ag        Ag (1)
   21    76           0.2744887091           7.4692175031      Bu        Bu (3)
   22    77           0.2796018570           7.6083533305      Bu        Bu (3)
   23    78           0.3208657114           8.7311998927      Bu        Bu (3)
   24    49           0.3459467005           9.4136883021      Au        Au (2)
   25    79           0.3633646625           9.8876551442      Bu        Bu (3)
   26    10           0.4423262966          12.0363104454      Ag        Ag (1)
   27    11           0.4599721832          12.5164794308      Ag        Ag (1)
   28    80           0.4746385802          12.9155723832      Bu        Bu (3)
   29    81           0.6375266177          17.3479812230      Bu        Bu (3)
   30    12           0.6553101203          17.8318949304      Ag        Ag (1)
   31    50           0.6761279498          18.3983768691      Au        Au (2)
   32   119           0.6862606659          18.6741020933      Bg        Bg (4)
   33    51           0.7417767707          20.1847721058      Au        Au (2)
   34    82           0.7565374475          20.5864305416      Bu        Bu (3)
   35    83           0.8019686542          21.8226765234      Bu        Bu (3)
   36    13           0.8099276277          22.0392512044      Ag        Ag (1)
   37    14           0.8481115341          23.0782881201      Ag        Ag (1)
   38   120           0.8625630451          23.4715337273      Bg        Bg (4)
   39    84           0.8665770108          23.5807592868      Bu        Bu (3)
   40    52           0.9019400609          24.5430368019      Au        Au (2)
   41    15           0.9401175360          25.5818987118      Ag        Ag (1)
   42    53           0.9672388218          26.3199064186      Au        Au (2)
   43   121           0.9703745900          26.4052350100      Bg        Bg (4)
   44    16           0.9878799467          26.8815799822      Ag        Ag (1)
   45    85           0.9909351380          26.9647159641      Bu        Bu (3)
   46    17           0.9996111944          27.2008034623      Ag        Ag (1)
   47   122           1.0163617202          27.6566084426      Bg        Bg (4)
   48    18           1.0551248543          28.7114069454      Ag        Ag (1)
   49    86           1.0599607439          28.8429981924      Bu        Bu (3)
   50   123           1.1910647374          32.4105192238      Bg        Bg (4)
   51    87           1.2040238194          32.7631537731      Bu        Bu (3)
   52    88           1.2344728419          33.5917137966      Bu        Bu (3)
   53    19           1.2720569917          34.6144305087      Ag        Ag (1)
   54    54           1.2914998927          35.1434987417      Au        Au (2)
   55    89           1.4277940470          38.8522512300      Bu        Bu (3)
   56    20           1.4662131475          39.8976881029      Ag        Ag (1)
   57   124           1.4885089207          40.5043869357      Bg        Bg (4)
   58    90           1.4979461047          40.7611857662      Bu        Bu (3)
   59    55           1.5591752515          42.4273155557      Au        Au (2)
   60    21           1.6012104281          43.5711508628      Ag        Ag (1)
   61    22           1.8147074534          49.3807002741      Ag        Ag (1)
   62    56           1.9448115251          52.9210120505      Au        Au (2)
   63    91           1.9540771976          53.1731438163      Bu        Bu (3)
   64    23           2.0781891596          56.5504019997      Ag        Ag (1)
   65    24           2.1476952824          58.4417597563      Ag        Ag (1)
   66    92           2.2248697275          60.5417831693      Bu        Bu (3)
   67    57           2.2398681989          60.9499123259      Au        Au (2)
   68    25           2.2643080219          61.6149537206      Ag        Ag (1)
   69   125           2.2707847387          61.7911941424      Bg        Bg (4)
   70    93           2.2744981443          61.8922410461      Bu        Bu (3)
   71   126           2.3028251270          62.6630574327      Bg        Bg (4)
   72    58           2.3616624843          64.2641033208      Au        Au (2)
   73    94           2.4067940609          65.4921959565      Bu        Bu (3)
   74    59           2.4184282001          65.8087769778      Au        Au (2)
   75   127           2.4238003254          65.9549599400      Bg        Bg (4)
   76    26           2.4355093324          66.2735782174      Ag        Ag (1)
   77    95           2.4492697016          66.6480169004      Bu        Bu (3)
   78    27           2.5192427531          68.5520804313      Ag        Ag (1)
   79    96           2.5300358927          68.8457766927      Bu        Bu (3)
   80    28           2.6294392455          71.5506794360      Ag        Ag (1)
   81    97           2.6624120286          72.4479144798      Bu        Bu (3)
   82    29           2.7569598826          75.0206923841      Ag        Ag (1)
   83   128           2.7758667700          75.5351749463      Bg        Bg (4)
   84    60           2.7986830562          76.1560376570      Au        Au (2)
   85    98           2.8675432871          78.0298198018      Bu        Bu (3)
   86   129           2.8734812717          78.1914005776      Bg        Bg (4)
   87    30           2.9218421882          79.5073680184      Ag        Ag (1)
   88    99           3.4075197904          92.7233274596      Bu        Bu (3)
   89    31           3.7148926811         101.0873690352      Ag        Ag (1)
   90   100           3.7879217553         103.0745911739      Bu        Bu (3)
   91    61           4.0998338529         111.5621508463      Au        Au (2)
   92   130           4.1380741338         112.6027217929      Bg        Bg (4)
   93    62           4.1528093130         113.0036864019      Au        Au (2)
   94   131           4.1863487556         113.9163410352      Bg        Bg (4)
   95    32           4.2773600865         116.3928852530      Ag        Ag (1)
   96   132           4.3130225874         117.3633112398      Bg        Bg (4)
   97   101           4.3639377599         118.7487835186      Bu        Bu (3)
   98   102           4.3796385373         119.1760233925      Bu        Bu (3)
   99    63           4.3989662393         119.7019569008      Au        Au (2)
  100    33           4.5517804476         123.8602429119      Ag        Ag (1)
  101   103           4.6484522912         126.4908175128      Bu        Bu (3)
  102    34           4.7287207453         128.6750331908      Ag        Ag (1)
  103   104           4.7725116231         129.8666435566      Bu        Bu (3)
  104    35           5.0866263977         138.4141411203      Ag        Ag (1)
  105   105           5.2209935590         142.0704574641      Bu        Bu (3)
  106    36           5.2330285859         142.3979471929      Ag        Ag (1)
  107    64           5.3210991024         144.7944677849      Au        Au (2)
  108   133           5.4004700554         146.9542612178      Bg        Bg (4)
  109    37           5.4147481643         147.3427883127      Ag        Ag (1)
  110   106           5.6552829395         153.8880723030      Bu        Bu (3)
  111   107           6.2295037667         169.5134153881      Bu        Bu (3)
  112    38           6.2340359782         169.6367431317      Ag        Ag (1)
  113    65           6.6236109367         180.2376166918      Au        Au (2)
  114   108           6.6635544479         181.3245348877      Bu        Bu (3)
  115    66           6.6704045186         181.5109347885      Au        Au (2)
  116   134           6.7052212310         182.4583456977      Bg        Bg (4)
  117    39           6.7445111150         183.5274777963      Ag        Ag (1)
  118   135           6.7646534430         184.0755784069      Bg        Bg (4)
  119   109           6.8113226443         185.3455119346      Bu        Bu (3)
  120    40           6.9727769107         189.7389058787      Ag        Ag (1)
  121    41           7.0929003128         193.0076298307      Ag        Ag (1)
  122    67           7.0984168935         193.1577436214      Au        Au (2)
  123   136           7.1860417173         195.5421362979      Bg        Bg (4)
  124    68           7.1873085592         195.5766088173      Au        Au (2)
  125    42           7.2310102102         196.7657912000      Ag        Ag (1)
  126   137           7.2339915655         196.8469180003      Bg        Bg (4)
  127   110           7.2752667271         197.9700722474      Bu        Bu (3)
  128    69           7.2907410933         198.3911511612      Au        Au (2)
  129   138           7.2932920885         198.4605672696      Bg        Bg (4)
  130   111           7.3283236807         199.4138253559      Bu        Bu (3)
  131    43           7.3900207390         201.0926876626      Ag        Ag (1)
  132   112           7.5446812519         205.3012141768      Bu        Bu (3)
  133    44           7.6789144603         208.9538854761      Ag        Ag (1)
  134   113           7.7005286639         209.5420378555      Bu        Bu (3)
  135    45           7.9531822908         216.4170925649      Ag        Ag (1)
  136   114           8.3698934780         227.7563804477      Bu        Bu (3)
  137    46          13.9460464118         379.4912158261      Ag        Ag (1)
  138   115          15.0445367849         409.3826585293      Bu        Bu (3)


  VSCF finished.

 @CHECKOUT-I, Total execution time (CPU/WALL):        7.57/       7.58 seconds.
--executable xvscf finished with status     0 in        7.62 seconds (walltime).
 --invoking executable--
/apps/eb/cfour/2.1-iompi-2018a-serial/bin/xvtran
 @GETMEM-I,  Allocated   38146 MB of main memory.
  Full UHF integral transformation
  Frozen-core orbitals requested within analytic derivative calculation
  Transformation of IIII integrals :
  2 passes through the AO integral file were required.
     1246094 AO integrals were read.
     1246094 MO integrals (Spin case AAAA) were written to HF2AA.
     1246094 MO integrals (Spin case BBBB) were written to HF2BB.
     2489474 MO integrals (Spin case AABB) were written to HF2AB.
  Transformation of IIJJ integrals :
  2 passes through the AO integral file were required.
     2438161 AO integrals were read.
     2438161 MO integrals (Spin case AAAA) were written to HF2AA.
     2438161 MO integrals (Spin case BBBB) were written to HF2BB.
     4876322 MO integrals (Spin case AABB) were written to HF2AB.
  Transformation of IJIJ integrals :
  2 passes through the AO integral file were required.
     4620815 AO integrals were read.
     4620815 MO integrals (Spin case AAAA) were written to HF2AA.
     4620815 MO integrals (Spin case BBBB) were written to HF2BB.
     9234753 MO integrals (Spin case AABB) were written to HF2AB.
  Transformation of IJKL integrals :
  2 passes through the AO integral file were required.
     3358092 AO integrals were read.
     3358092 MO integrals (Spin case AAAA) were written to HF2AA.
     3358092 MO integrals (Spin case BBBB) were written to HF2BB.
     6716184 MO integrals (Spin case AABB) were written to HF2AB.
  Summary of active molecular orbitals: 
------------------------------------------------------------------------
                         * Spin case alpha *
 
  Index      Eigenvalue    Symmetry    Index      Eigenvalue    Symmetry
------------------------------------------------------------------------
     1       -20.6340702        1        70         6.5769589        2
     2        -1.4570914        1        71         6.6133396        2
     3        -0.7532318        1        72         7.0101466        2
     4        -0.6577687        1        73         7.1716198        2
     5        -0.5984063        2        74         7.2726306        2
     6       -20.6341157        3        75         0.0461228        3
     7        -1.3663671        3        76         0.1174312        3
     8        -0.7372271        3        77         0.1804970        3
     9        -0.5839729        3        78         0.2769011        3
    10        -0.5414247        4        79         0.3146244        3
    11         0.0338125        1        80         0.3560002        3
    12         0.1523730        1        81         0.4505185        3
    13         0.1597036        1        82         0.6274459        3
    14         0.1931738        1        83         0.7266678        3
    15         0.2697993        1        84         0.7731072        3
    16         0.4118867        1        85         0.8566918        3
    17         0.4459070        1        86         0.9744111        3
    18         0.6566429        1        87         1.0410230        3
    19         0.7863532        1        88         1.1979459        3
    20         0.8277821        1        89         1.2259585        3
    21         0.9271336        1        90         1.3917318        3
    22         0.9526681        1        91         1.4631084        3
    23         0.9972230        1        92         1.9369469        3
    24         1.0390474        1        93         2.1794105        3
    25         1.1844853        1        94         2.2340320        3
    26         1.4299739        1        95         2.3799792        3
    27         1.5673452        1        96         2.4227483        3
    28         1.8019580        1        97         2.5091378        3
    29         2.0307967        1        98         2.6420836        3
    30         2.1028716        1        99         2.8256109        3
    31         2.2311978        1       100         3.3520554        3
    32         2.4106931        1       101         3.7860989        3
    33         2.4963703        1       102         4.2772059        3
    34         2.5991341        1       103         4.3624368        3
    35         2.7143156        1       104         4.6292949        3
    36         2.8982826        1       105         4.7573317        3
    37         3.7072007        1       106         5.1983540        3
    38         4.2522897        1       107         5.6119300        3
    39         4.4922935        1       108         6.1999565        3
    40         4.7148467        1       109         6.6194990        3
    41         5.0748183        1       110         6.7677798        3
    42         5.2019961        1       111         7.2185534        3
    43         5.3683191        1       112         7.2534707        3
    44         6.2104387        1       113         7.4984235        3
    45         6.6971077        1       114         7.6544584        3
    46         6.9274384        1       115         8.3170024        3
    47         6.9964089        1       116        15.0170407        3
    48         7.1687335        1       117         0.1997637        4
    49         7.3313284        1       118         0.2581755        4
    50         7.6536966        1       119         0.6870211        4
    51         7.9120666        1       120         0.8463239        4
    52        13.9113788        1       121         0.9652622        4
    53         0.1443782        2       122         1.0147079        4
    54         0.3440015        2       123         1.1847977        4
    55         0.6557105        2       124         1.4886293        4
    56         0.7434700        2       125         2.2094027        4
    57         0.8968888        2       126         2.2830819        4
    58         0.9577602        2       127         2.4077959        4
    59         1.2894102        2       128         2.7655231        4
    60         1.5590055        2       129         2.8556666        4
    61         1.8992101        2       130         4.1306037        4
    62         2.2286702        2       131         4.1730782        4
    63         2.3404585        2       132         4.3163275        4
    64         2.3826632        2       133         5.3933903        4
    65         2.7920907        2       134         6.6551165        4
    66         4.0932095        2       135         6.7187253        4
    67         4.1384835        2       136         7.0975219        4
    68         4.4019140        2       137         7.2208337        4
    69         5.3134818        2       138         7.2686494        4
------------------------------------------------------------------------
------------------------------------------------------------------------
                         * Spin case beta *
 
  Index      Eigenvalue    Symmetry    Index      Eigenvalue    Symmetry
------------------------------------------------------------------------
     1       -20.5914434        1        70         6.6704045        2
     2        -1.2911311        1        71         7.0984169        2
     3        -0.6169597        1        72         7.1873086        2
     4        -0.5495087        2        73         7.2907411        2
     5       -20.5914435        3        74         0.0435186        3
     6        -1.1963524        3        75         0.1107454        3
     7        -0.6843291        3        76         0.1520629        3
     8        -0.4893883        4        77         0.2744887        3
     9         0.0188828        1        78         0.2796019        3
    10         0.0409428        1        79         0.3208657        3
    11         0.1581976        1        80         0.3633647        3
    12         0.1712460        1        81         0.4746386        3
    13         0.1994903        1        82         0.6375266        3
    14         0.2712036        1        83         0.7565374        3
    15         0.4423263        1        84         0.8019687        3
    16         0.4599722        1        85         0.8665770        3
    17         0.6553101        1        86         0.9909351        3
    18         0.8099276        1        87         1.0599607        3
    19         0.8481115        1        88         1.2040238        3
    20         0.9401175        1        89         1.2344728        3
    21         0.9878799        1        90         1.4277940        3
    22         0.9996112        1        91         1.4979461        3
    23         1.0551249        1        92         1.9540772        3
    24         1.2720570        1        93         2.2248697        3
    25         1.4662131        1        94         2.2744981        3
    26         1.6012104        1        95         2.4067941        3
    27         1.8147075        1        96         2.4492697        3
    28         2.0781892        1        97         2.5300359        3
    29         2.1476953        1        98         2.6624120        3
    30         2.2643080        1        99         2.8675433        3
    31         2.4355093        1       100         3.4075198        3
    32         2.5192428        1       101         3.7879218        3
    33         2.6294392        1       102         4.3639378        3
    34         2.7569599        1       103         4.3796385        3
    35         2.9218422        1       104         4.6484523        3
    36         3.7148927        1       105         4.7725116        3
    37         4.2773601        1       106         5.2209936        3
    38         4.5517804        1       107         5.6552829        3
    39         4.7287207        1       108         6.2295038        3
    40         5.0866264        1       109         6.6635544        3
    41         5.2330286        1       110         6.8113226        3
    42         5.4147482        1       111         7.2752667        3
    43         6.2340360        1       112         7.3283237        3
    44         6.7445111        1       113         7.5446813        3
    45         6.9727769        1       114         7.7005287        3
    46         7.0929003        1       115         8.3698935        3
    47         7.2310102        1       116        15.0445368        3
    48         7.3900207        1       117         0.2011953        4
    49         7.6789145        1       118         0.2580958        4
    50         7.9531823        1       119         0.6862607        4
    51        13.9460464        1       120         0.8625630        4
    52         0.1465813        2       121         0.9703746        4
    53         0.3459467        2       122         1.0163617        4
    54         0.6761279        2       123         1.1910647        4
    55         0.7417768        2       124         1.4885089        4
    56         0.9019401        2       125         2.2707847        4
    57         0.9672388        2       126         2.3028251        4
    58         1.2914999        2       127         2.4238003        4
    59         1.5591753        2       128         2.7758668        4
    60         1.9448115        2       129         2.8734813        4
    61         2.2398682        2       130         4.1380741        4
    62         2.3616625        2       131         4.1863488        4
    63         2.4184282        2       132         4.3130226        4
    64         2.7986831        2       133         5.4004701        4
    65         4.0998339        2       134         6.7052212        4
    66         4.1528093        2       135         6.7646534        4
    67         4.3989662        2       136         7.1860417        4
    68         5.3210991        2       137         7.2339916        4
    69         6.6236109        2       138         7.2932921        4
------------------------------------------------------------------------
  -20.6340702234718       -1.45709136975243      -0.753231763288385     
 -0.657768694430938      -0.598406315676818       -20.6341156828738     
  -1.36636706722111      -0.737227067506370      -0.583972889078862     
 -0.541424666305540       3.381249863929089E-002  0.152372951066962     
  0.159703573737330       0.193173773101691       0.269799327587731     
  0.411886700023820       0.445907047162731       0.656642893567102     
  0.786353216698380       0.827782118208656       0.927133643439754     
  0.952668071126404       0.997223001388778        1.03904739463170     
   1.18448527763055        1.42997386649820        1.56734519677341     
   1.80195803050126        2.03079671154550        2.10287161795827     
   2.23119775139144        2.41069313232902        2.49637031886945     
   2.59913409509652        2.71431559958653        2.89828257323991     
   3.70720071991615        4.25228968293158        4.49229350275964     
   4.71484669508924        5.07481830400126        5.20199607067892     
   5.36831909547580        6.21043867236949        6.69710769000314     
   6.92743835129143        6.99640885277890        7.16873347432561     
   7.33132840843828        7.65369657620465        7.91206660405389     
   13.9113788056179       0.144378206220848       0.344001501416505     
  0.655710486734848       0.743469957470292       0.896888814203801     
  0.957760163341932        1.28941023728731        1.55900554836347     
   1.89921009806129        2.22867022265874        2.34045845341719     
   2.38266324517409        2.79209071216872        4.09320946215316     
   4.13848346170330        4.40191401501289        5.31348176256146     
   6.57695893766006        6.61333963753041        7.01014659318179     
   7.17161978824811        7.27263060294230       4.612284358441669E-002
  0.117431163687344       0.180497044258884       0.276901084605799     
  0.314624360952297       0.356000221894305       0.450518475369090     
  0.627445895952742       0.726667794258281       0.773107242346723     
  0.856691789249549       0.974411121425159        1.04102300378767     
   1.19794588686194        1.22595846958800        1.39173176648270     
   1.46310840478885        1.93694688922724        2.17941045554475     
   2.23403196751069        2.37997919576642        2.42274826510734     
   2.50913779585642        2.64208358344408        2.82561091825050     
   3.35205535750500        3.78609894919885        4.27720594406756     
   4.36243683759289        4.62929494146761        4.75733169767481     
   5.19835399143709        5.61192999419587        6.19995651244436     
   6.61949898458118        6.76777976781785        7.21855344204954     
   7.25347067567356        7.49842352970619        7.65445842960158     
   8.31700239491558        15.0170407107543       0.199763742321504     
  0.258175534217561       0.687021102038047       0.846323921939179     
  0.965262239043889        1.01470793426829        1.18479767593116     
   1.48862926959128        2.20940274327288        2.28308190480163     
   2.40779593967260        2.76552311176128        2.85566659490197     
   4.13060373173790        4.17307822036006        4.31632753468011     
   5.39339031543996        6.65511650562389        6.71872532882316     
   7.09752186155731        7.22083369119611        7.26864941239400     
  -20.5914434067982       -1.29113107891659      -0.616959675159459     
 -0.549508670862920       -20.5914435130381       -1.19635238681654     
 -0.684329104427743      -0.489388342055282       1.888284951076660E-002
  4.094279087994310E-002  0.158197582122589       0.171246031225678     
  0.199490309433793       0.271203626374223       0.442326296626000     
  0.459972183215185       0.655310120337626       0.809927627730859     
  0.848111534090126       0.940117535950774       0.987879946676558     
  0.999611194419624        1.05512485430466        1.27205699173314     
   1.46621314750578        1.60121042809054        1.81470745342911     
   2.07818915960510        2.14769528241877        2.26430802193594     
   2.43550933236909        2.51924275306476        2.62943924548776     
   2.75695988260744        2.92184218823484        3.71489268109770     
   4.27736008647750        4.55178044758614        4.72872074525873     
   5.08662639769684        5.23302858585641        5.41474816427975     
   6.23403597818250        6.74451111501568        6.97277691066356     
   7.09290031283952        7.23101021023571        7.39002073898957     
   7.67891446034089        7.95318229079529        13.9460464118138     
  0.146581261969422       0.345946700458700       0.676127949787414     
  0.741776770737649       0.901940060934877       0.967238821771407     
   1.29149989271397        1.55917525147528        1.94481152510877     
   2.23986819890687        2.36166248426887        2.41842820008328     
   2.79868305618666        4.09983385285279        4.15280931295539     
   4.39896623928397        5.32109910240322        6.62361093673066     
   6.67040451859072        7.09841689347422        7.18730855915762     
   7.29074109334631       4.351861822346156E-002  0.110745420007421     
  0.152062919226230       0.274488709129413       0.279601857010234     
  0.320865711394307       0.363364662459867       0.474638580233207     
  0.637526617737726       0.756537447545016       0.801968654168785     
  0.866577010810416       0.990935137981618        1.05996074394422     
   1.20402381942344        1.23447284185418        1.42779404703186     
   1.49794610465267        1.95407719756926        2.22486972747132     
   2.27449814426189        2.40679406092028        2.44926970160490     
   2.53003589272666        2.66241202862930        2.86754328711694     
   3.40751979039678        3.78792175534592        4.36393775990816     
   4.37963853732237        4.64845229121421        4.77251162307928     
   5.22099355904534        5.65528293952982        6.22950376672342     
   6.66355444786870        6.81132264427910        7.27526672706444     
   7.32832368073962        7.54468125192022        7.70052866387859     
   8.36989347802552        15.0445367848981       0.201195311708128     
  0.258095788830624       0.686260665941301       0.862563045116418     
[...]
 ======================================================================
 Norm of residual vector:     0.00154395
 CPU time [min]:  3571.138                   Wall time [min]:   569.858
 
 Iteration 10  CI energy:  -151.25580038  Energy decrease:   0.0000E+00
 ======================================================================
 Norm of residual vector:     0.00120442
 CPU time [min]:  3646.285                   Wall time [min]:   582.170
 
 Iteration 11  CI energy:  -151.25580038  Energy decrease:   0.0000E+00
 ======================================================================
 Norm of residual vector:     0.00096955
 CPU time [min]:  3720.603                   Wall time [min]:   594.286
 
 Iteration 12  CI energy:  -151.25580038  Energy decrease:   0.0000E+00
 ======================================================================
 Norm of residual vector:     0.00081195
 CPU time [min]:  3795.465                   Wall time [min]:   606.472
 
 Iteration 13  CI energy:  -151.25580038  Energy decrease:   0.0000E+00
 ======================================================================
 Norm of residual vector:     0.00071140
 CPU time [min]:  3869.972                   Wall time [min]:   618.681
 
 Iteration 14  CI energy:  -151.25580038  Energy decrease:   0.0000E+00
 ======================================================================
 Norm of residual vector:     0.00055610
 CPU time [min]:  3944.653                   Wall time [min]:   631.036
 
 Iteration 15  CI energy:  -151.25580038  Energy decrease:   0.0000E+00
 ======================================================================
 Norm of residual vector:     0.00037500
 CPU time [min]:  4020.046                   Wall time [min]:   643.433
 
 Iteration 16  CI energy:  -151.25580038  Energy decrease:   0.0000E+00
 ======================================================================
 Norm of residual vector:     0.00021577
 CPU time [min]:  4095.688                   Wall time [min]:   656.038
 
 Iteration 17  CI energy:  -151.25580038  Energy decrease:   0.0000E+00
 ======================================================================
 Norm of residual vector:     0.00011515
 CPU time [min]:  4169.983                   Wall time [min]:   668.469
 
 Iteration 18  CI energy:  -151.25580038  Energy decrease:   0.0000E+00
 ======================================================================
 Norm of residual vector:     0.00005964
 CPU time [min]:  4244.435                   Wall time [min]:   681.006
 
 Iteration 19  CI energy:  -151.25580038  Energy decrease:   0.0000E+00
 ======================================================================
 Norm of residual vector:     0.00003021
 CPU time [min]:  4320.840                   Wall time [min]:   693.709
 
 Iteration 20  CI energy:  -151.25580038  Energy decrease:   0.0000E+00
 ======================================================================
 Norm of residual vector:     0.00001529
 CPU time [min]:  4396.680                   Wall time [min]:   706.446
 
 Iteration 21  CI energy:  -151.25580038  Energy decrease:   0.0000E+00
 ======================================================================
 Norm of residual vector:     0.00000766
 CPU time [min]:  4474.094                   Wall time [min]:   719.522
 
 Iteration 22  CI energy:  -151.25580038  Energy decrease:   0.0000E+00
 ======================================================================
 Norm of residual vector:     0.00000380
 CPU time [min]:  4551.404                   Wall time [min]:   732.577
 
 Iteration 23  CI energy:  -151.25580038  Energy decrease:   0.0000E+00
 ======================================================================
 Norm of residual vector:     0.00000185
 CPU time [min]:  4628.804                   Wall time [min]:   745.695
 
 Iteration 24  CI energy:  -151.25580038  Energy decrease:   0.0000E+00
 ======================================================================
 Norm of residual vector:     0.00000091
 CPU time [min]:  4706.825                   Wall time [min]:   759.150
 
 Iteration 25  CI energy:  -151.25580038  Energy decrease:   0.0000E+00
 ======================================================================
 Norm of residual vector:     0.00000044
 CPU time [min]:  4786.001                   Wall time [min]:   772.907
 
 Iteration 26  CI energy:  -151.25580038  Energy decrease:   0.0000E+00
 ======================================================================
 Norm of residual vector:     0.00000021
 CPU time [min]:  4865.087                   Wall time [min]:   786.674
 
 Iteration 27  CI energy:  -151.25580038  Energy decrease:   0.0000E+00
 ======================================================================
 Norm of residual vector:     0.00000010
 CPU time [min]:  4943.256                   Wall time [min]:   800.464
 
 Iteration 28  CI energy:  -151.25580038  Energy decrease:   0.0000E+00
 ======================================================================
 Norm of residual vector:     0.00000005
 CPU time [min]:  5022.531                   Wall time [min]:   814.532
 
 Iteration 29  CI energy:  -151.25580038  Energy decrease:   0.0000E+00
 ======================================================================
 Norm of residual vector:     0.00000002
 CPU time [min]:  5101.716                   Wall time [min]:   828.677
 
 Iteration 30  CI energy:  -151.25580038  Energy decrease:   0.0000E+00
 ======================================================================
 Norm of residual vector:     0.00000001
 CPU time [min]:  5181.902                   Wall time [min]:   842.846
 
 Iteration 31  CI energy:  -151.25580038  Energy decrease:   0.0000E+00
 ======================================================================
 Norm of residual vector:     4.6670E-09
 CPU time [min]:  5262.310                   Wall time [min]:   857.274
 
 Iteration 32  CI energy:  -151.25580038  Energy decrease:   0.0000E+00
 ======================================================================
 Norm of residual vector:     2.2591E-09
 CPU time [min]:  5342.441                   Wall time [min]:   871.608
 
 Iteration 33  CI energy:  -151.25580038  Energy decrease:   0.0000E+00
 ======================================================================
 Norm of residual vector:     1.1422E-09
 CPU time [min]:  5422.402                   Wall time [min]:   886.048
 
 Iteration 34  CI energy:  -151.25580038  Energy decrease:   0.0000E+00
 ======================================================================
 Norm of residual vector:     6.1791E-10
 CPU time [min]:  5501.612                   Wall time [min]:   900.612
 
 Iteration 35  CI energy:  -151.25580038  Energy decrease:   0.0000E+00
 ======================================================================
 Norm of residual vector:     3.4880E-10
 CPU time [min]:  5580.968                   Wall time [min]:   915.081
 
 Iteration 36  CI energy:  -151.25580038  Energy decrease:   0.0000E+00
 ======================================================================
 Norm of residual vector:     1.9580E-10
 CPU time [min]:  5660.785                   Wall time [min]:   929.537
 
 Iteration 37  CI energy:  -151.25580038  Energy decrease:   0.0000E+00
 ======================================================================
 Norm of residual vector:     1.0500E-10
 CPU time [min]:  5740.125                   Wall time [min]:   944.191
 
 Iteration 38  CI energy:  -151.25580038  Energy decrease:   0.0000E+00
 ======================================================================
 Norm of residual vector:     5.6267E-11
 CPU time [min]:  5820.422                   Wall time [min]:   958.946
 
 Iteration 39  CI energy:  -151.25580038  Energy decrease:   0.0000E+00
 ======================================================================
 Norm of residual vector:     2.8984E-11
 CPU time [min]:  5901.563                   Wall time [min]:   973.873
 
 Iteration 40  CI energy:  -151.25580038  Energy decrease:   0.0000E+00
 ======================================================================
 Norm of residual vector:     1.4542E-11
 CPU time [min]:  5982.701                   Wall time [min]:   988.754
 
 Iteration 41  CI energy:  -151.25580038  Energy decrease:   0.0000E+00
 ======================================================================
 Norm of residual vector:     6.8950E-12
 CPU time [min]:  6064.293                   Wall time [min]:  1003.703
 
 Iteration 42  CI energy:  -151.25580038  Energy decrease:   0.0000E+00
 ======================================================================
 Norm of residual vector:     3.2603E-12
 CPU time [min]:  6146.050                   Wall time [min]:  1018.721
 
 Iteration 43  CI energy:  -151.25580038  Energy decrease:   0.0000E+00
 ======================================================================
 Norm of residual vector:     1.5695E-12
 CPU time [min]:  6228.237                   Wall time [min]:  1033.863
 
 Iteration 44  CI energy:  -151.25580038  Energy decrease:   0.0000E+00
 ======================================================================
 Norm of residual vector:     7.7371E-13
 CPU time [min]:  6295.095                   Wall time [min]:  1044.585
 
 Iteration 45  CI energy:  -151.25580038  Energy decrease:   0.0000E+00
 ======================================================================
 
 Iteration has converged in 45 steps.
 
 Final results:
 Total CCSDT energy [au]:           -151.255800380631
 
 
 
 Calculating reduced density-matrix for root 1...
 
 Total energy from RDM [au]:        -151.255800380631
 
 ************************ 2021-01-30 12:37:17 *************************
                      Normal termination of mrcc.
 **********************************************************************
--executable dmrcc finished with status     0 in    65096.40 seconds (walltime).
 --invoking executable--
/apps/eb/cfour/2.1-iompi-2018a-serial/bin/xdens
 @GETMEM-I,  Allocated   38146 MB of main memory.
  CCSDT density and intermediates are calculated.
  The perturbed orbitals are chosen canonical.
   Frozen core orbitals in analytic derivative calculation
  dropped orbitals                     1                     0
                     1                     0                     0
                     0                     0                     0
 ITERM.tmp does not exsit!
 skip reading
  @S2EXPECT-I, S**2 calculated as expectation value.
  @S2EXPECT-I, Contributions to <S**2> : 
  From one particle density : 
    D(ai)   :   -0.0076930881
    D(ij)   :    0.0824469461
    D(ab)   :    0.1037458613
  From two particle density : 
    G(abcd) :   -0.0577871606
    G(abci) :    0.0008073749
    G(abij) :   -0.0236601241
    G(aibj) :   -0.0604430314
    G(ijka) :    0.0041383401
    G(ijkl) :   -0.0575698856
              Reference state <S**2>        :    2.0160295593.
              Total one particle correction :    0.1784997192.
              Total two particle correction :   -0.1945144867.
              Expectation value of <S**2>   :    2.0000147918.
  The iterative expansion of D(ai) converged after  20 iterations.
  ----------------------------------------------------------------------
                 Natural orbital occupation numbers
  ----------------------------------------------------------------------
                            Alpha spin
  ----------------------------------------------------------------------
  1.00000  1.00000  0.99228  0.99134  0.98562  0.98315  0.98276  0.98139
  0.98023  0.97866  0.01563  0.01347  0.01167  0.00846  0.00809  0.00670
  0.00585  0.00558  0.00438  0.00430  0.00428  0.00364  0.00354  0.00331
  0.00324  0.00319  0.00318  0.00215  0.00078  0.00067  0.00065  0.00063
  0.00058  0.00055  0.00053  0.00048  0.00048  0.00045  0.00045  0.00044
  0.00043  0.00038  0.00038  0.00036  0.00033  0.00031  0.00030  0.00030
  0.00029  0.00028  0.00028  0.00028  0.00027  0.00026  0.00024  0.00022
  0.00020  0.00019  0.00017  0.00009  0.00009  0.00008  0.00008  0.00008
  0.00007  0.00007  0.00007  0.00007  0.00006  0.00005  0.00005  0.00004
  0.00004  0.00004  0.00004  0.00004  0.00004  0.00004  0.00003  0.00003
  0.00003  0.00003  0.00003  0.00003  0.00003  0.00002  0.00002  0.00002
  0.00002  0.00002  0.00002  0.00002  0.00002  0.00002  0.00002  0.00002
  0.00001  0.00001  0.00001  0.00001  0.00001  0.00001  0.00001  0.00001
  0.00001  0.00001  0.00001  0.00000  0.00000  0.00000  0.00000  0.00000
  0.00000  0.00000  0.00000  0.00000  0.00000  0.00000  0.00000  0.00000
  0.00000  0.00000  0.00000  0.00000  0.00000  0.00000  0.00000  0.00000
  0.00000  0.00000  0.00000  0.00000  0.00000  0.00000  0.00000  0.00000
  0.00000  0.00000
  Trace of density matrix :  10.0000000000.
  ----------------------------------------------------------------------
                            Beta spin
  ----------------------------------------------------------------------
  1.00001  1.00001  0.98620  0.98457  0.98086  0.97891  0.97863  0.97703
  0.01547  0.01379  0.01164  0.01004  0.00909  0.00814  0.00574  0.00526
  0.00353  0.00336  0.00334  0.00318  0.00217  0.00191  0.00184  0.00171
  0.00121  0.00098  0.00071  0.00065  0.00061  0.00058  0.00057  0.00056
  0.00049  0.00046  0.00046  0.00035  0.00033  0.00030  0.00030  0.00029
  0.00029  0.00027  0.00027  0.00025  0.00022  0.00019  0.00019  0.00018
  0.00017  0.00017  0.00016  0.00015  0.00015  0.00013  0.00012  0.00011
  0.00011  0.00009  0.00008  0.00008  0.00007  0.00007  0.00007  0.00006
  0.00006  0.00006  0.00006  0.00005  0.00004  0.00004  0.00004  0.00004
  0.00004  0.00003  0.00003  0.00003  0.00003  0.00003  0.00003  0.00003
  0.00003  0.00003  0.00002  0.00002  0.00002  0.00002  0.00002  0.00002
  0.00002  0.00002  0.00002  0.00001  0.00001  0.00001  0.00001  0.00001
  0.00001  0.00001  0.00001  0.00001  0.00001  0.00001  0.00001  0.00001
  0.00001  0.00000  0.00000  0.00000  0.00000  0.00000  0.00000  0.00000
  0.00000  0.00000  0.00000  0.00000  0.00000  0.00000  0.00000  0.00000
  0.00000  0.00000  0.00000  0.00000  0.00000  0.00000  0.00000  0.00000
  0.00000  0.00000  0.00000  0.00000  0.00000  0.00000  0.00000  0.00000
  0.00000  0.00000
  Trace of density matrix :   8.0000000000.
  ----------------------------------------------------------------------
  Density calculation successfully completed.
 @CHECKOUT-I, Total execution time (CPU/WALL):      216.44/     216.89 seconds.
--executable xdens finished with status     0 in      217.00 seconds (walltime).
 --invoking executable--
/apps/eb/cfour/2.1-iompi-2018a-serial/bin/xanti
 @GETMEM-I,  Allocated   38146 MB of main memory.
 CCSDT MO gammas will be sorted to Mulliken order.
 @CHECKOUT-I, Total execution time (CPU/WALL):        5.49/       5.49 seconds.
--executable xanti finished with status     0 in        5.51 seconds (walltime).
 --invoking executable--
/apps/eb/cfour/2.1-iompi-2018a-serial/bin/xbcktrn
 @GETMEM-I,  Allocated   38146 MB of main memory.
 CCSDT MO gammas will be transformed to the AO basis.
 @CHECKOUT-I, Total execution time (CPU/WALL):        1.58/       1.58 seconds.
--executable xbcktrn finished with status     0 in        1.60 seconds (walltime).
 --invoking executable--
/apps/eb/cfour/2.1-iompi-2018a-serial/bin/xvdint
 @GETMEM-I,  Allocated   38146 MB of main memory.
 One- and two-electron integral derivatives are calculated
 for UHF-CC/MBPT gradients and dipole moments.
 Spherical gaussians are used.

                     Kinetic energy integral gradient
                     --------------------------------

                         O #1 x     0.2841026501
                         O #1 y    -1.2014797969
                         H #2 x    -0.4038867672
                         H #2 y     1.2492305362


 O #1 1     0.1420513251           -0.6007398985            0.0000000000
 O #1 2    -0.1420513251            0.6007398985            0.0000000000
 H #2 1    -0.2019433836            0.6246152681            0.0000000000
 H #2 2     0.2019433836           -0.6246152681            0.0000000000



                   Nuclear attraction integral gradient
                   ------------------------------------

                         O #1 x   -21.2755906787
                         O #1 y    10.4519341592
                         H #2 x     1.5455018987
                         H #2 y   -12.6716648001


 O #1 1   -10.6377953394            5.2259670796            0.0000000000
 O #1 2    10.6377953394           -5.2259670796            0.0000000000
 H #2 1     0.7727509493           -6.3358324001            0.0000000000
 H #2 2    -0.7727509493            6.3358324001            0.0000000000



                      Reorthonormalization gradient
                      -----------------------------

                         O #1 x     0.0295358951
                         O #1 y    -0.4701301159
                         H #2 x    -0.1239846259
                         H #2 y     0.5298662339


 O #1 1     0.0147679476           -0.2350650580            0.0000000000
 O #1 2    -0.0147679476            0.2350650580            0.0000000000
 H #2 1    -0.0619923130            0.2649331170            0.0000000000
 H #2 2     0.0619923130           -0.2649331170            0.0000000000



                Electronic contributions to dipole moment
                -----------------------------------------

                     All components zero by symmetry

  Conversion factor used: 1 a.u. =   2.54174691 Debye 


 Evaluation of 1e integral derivatives required    0.08 seconds.
 Evaluation of 2el integral derivatives

                      Two-electron integral gradient
                      ------------------------------

                         O #1 x     8.9769208083
                         O #1 y    -4.4822601695
                         H #2 x    -0.5469294951
                         H #2 y     5.6223603345


 O #1 1     4.4884604042           -2.2411300848            0.0000000000
 O #1 2    -4.4884604042            2.2411300848            0.0000000000
 H #2 1    -0.2734647475            2.8111801672            0.0000000000
 H #2 2     0.2734647475           -2.8111801672            0.0000000000


 Evaluation of 2e integral derivatives required    8.40 seconds.

                            Molecular gradient
                            ------------------

                         O #1 x     0.1696363735
                         O #1 y    -0.0398443735
                         H #2 x    -0.0094256036
                         H #2 y     0.0389629781


 O #1 1     0.0848181867           -0.0199221867            0.0000000000
 O #1 2    -0.0848181867            0.0199221867            0.0000000000
 H #2 1    -0.0047128018            0.0194814891            0.0000000000
 H #2 2     0.0047128018           -0.0194814891            0.0000000000


  Molecular gradient norm 0.179E+00

                           Total dipole moment
                           -------------------

                     All components zero by symmetry

  Conversion factor used: 1 a.u. =   2.54174691 Debye 


 @CHECKOUT-I, Total execution time (CPU/WALL):        8.47/       8.73 seconds.
--executable xvdint finished with status     0 in        8.75 seconds (walltime).
 --invoking executable--
/apps/eb/cfour/2.1-iompi-2018a-serial/bin/xjoda
  igrd and ihes are                      0                    -1
  gradient from JOBARC 
   0.084818186748794  -0.019922186727103   0.000000000000000
  -0.084818186748794   0.019922186727103   0.000000000000000
  -0.004712801785081   0.019481489055859   0.000000000000000
   0.004712801785081  -0.019481489055859   0.000000000000000
 
 @CHECKOUT-I, Total execution time (CPU/WALL):        0.06/       0.08 seconds.
--executable xjoda finished with status     0 in        0.10 seconds (walltime).
  The final electronic energy is      -151.255800380631001 a.u. 
  This computation required                        65453.28 seconds (walltime).
