
    -----------------------------------------------------------------------
          Psi4: An Open-Source Ab Initio Electronic Structure Package
                               Psi4 1.3.2 release

                         Git: Rev {HEAD} ecbda83 


    R. M. Parrish, L. A. Burns, D. G. A. Smith, A. C. Simmonett,
    A. E. DePrince III, E. G. Hohenstein, U. Bozkaya, A. Yu. Sokolov,
    R. Di Remigio, R. M. Richard, J. F. Gonthier, A. M. James,
    H. R. McAlexander, A. Kumar, M. Saitow, X. Wang, B. P. Pritchard,
    P. Verma, H. F. Schaefer III, K. Patkowski, R. A. King, E. F. Valeev,
    F. A. Evangelista, J. M. Turney, T. D. Crawford, and C. D. Sherrill,
    J. Chem. Theory Comput. 13(7) pp 3185--3197 (2017).
    (doi: 10.1021/acs.jctc.7b00174)


                         Additional Contributions by
    P. Kraus, H. Kruse, M. H. Lechner, M. C. Schieber, R. A. Shaw,
    A. Alenaizan, R. Galvelis, Z. L. Glick, S. Lehtola, and J. P. Misiewicz

    -----------------------------------------------------------------------


    Psi4 started on: Tuesday, 09 March 2021 02:57PM

    Process ID: 253605
    Host:       c5-20.compute.lan
    PSIDATADIR: /apps/gb/PSI4/1.3.2/share/psi4
    Memory:     500.0 MiB
    Threads:    12
    
  ==> Input File <==

--------------------------------------------------------------------------
memory 4 GB

molecule  {
0 3
O   -1.522636442466   -0.028942593331    0.000000000000 
H   -0.559924226166   -0.008252673984    0.000000000000          
H   -1.778632712482    0.896326759830    0.000000000000
O    1.669986789630   -0.027014147639    0.000000000000
}
set {
basis aug-cc-pvtz
reference uhf
e_convergence 10
scf_type pk
freeze_core true
}

set ccenergy {
e_convergence 10
r_convergence 10
}

e = energy('ccsd(t)')

print_out('Stephenergy {}'.format(e))

--------------------------------------------------------------------------

  Memory set to   3.725 GiB by Python driver.

*** tstart() called on c5-20.compute.lan
*** at Tue Mar  9 14:57:29 2021

   => Loading Basis Set <=

    Name: AUG-CC-PVTZ
    Role: ORBITAL
    Keyword: BASIS
    atoms 1, 4 entry O          line   327 file /apps/gb/PSI4/1.3.2/share/psi4/basis/aug-cc-pvtz.gbs 
    atoms 2-3  entry H          line    36 file /apps/gb/PSI4/1.3.2/share/psi4/basis/aug-cc-pvtz.gbs 


         ---------------------------------------------------------
                                   SCF
               by Justin Turney, Rob Parrish, Andy Simmonett
                          and Daniel G. A. Smith
                              UHF Reference
                       12 Threads,   3814 MiB Core
         ---------------------------------------------------------

  ==> Geometry <==

    Molecular point group: cs
    Full point group: Cs

    Geometry (in Angstrom), charge = 0, multiplicity = 3:

       Center              X                  Y                   Z               Mass       
    ------------   -----------------  -----------------  -----------------  -----------------
         O           -1.522636442466    -0.028942593331     0.000000000000    15.994914619570
         H           -0.559924226166    -0.008252673984     0.000000000000     1.007825032230
         H           -1.778632712482     0.896326759830     0.000000000000     1.007825032230
         O            1.669986789630    -0.027014147639     0.000000000000    15.994914619570

  Running in cs symmetry.

  Rotational constants: A =     20.97300  B =      0.19780  C =      0.19595 [cm^-1]
  Rotational constants: A = 628754.78916  B =   5929.88442  C =   5874.48127 [MHz]
  Nuclear repulsion =   22.846906922214149

  Charge       = 0
  Multiplicity = 3
  Electrons    = 18
  Nalpha       = 10
  Nbeta        = 8

  ==> Algorithm <==

  SCF Algorithm Type is PK.
  DIIS enabled.
  MOM disabled.
  Fractional occupation disabled.
  Guess Type is SAD.
  Energy threshold   = 1.00e-10
  Density threshold  = 1.00e-08
  Integral threshold = 0.00e+00

  ==> Primary Basis <==

  Basis Set: AUG-CC-PVTZ
    Blend: AUG-CC-PVTZ
    Number of shells: 46
    Number of basis function: 138
    Number of Cartesian functions: 160
    Spherical Harmonics?: true
    Max angular momentum: 3

  ==> Pre-Iterations <==

   -------------------------------------------------------
    Irrep   Nso     Nmo     Nalpha   Nbeta   Ndocc  Nsocc
   -------------------------------------------------------
     A'        92      92       0       0       0       0
     A"        46      46       0       0       0       0
   -------------------------------------------------------
    Total     138     138      10       8       8       2
   -------------------------------------------------------

  ==> Integral Setup <==

  Using in-core PK algorithm.
   Calculation information:
      Number of atoms:                   4
      Number of AO shells:              46
      Number of primitives:             82
      Number of atomic orbitals:       160
      Number of basis functions:       138

      Integral cutoff                 1.00e-12
      Number of threads:                12

  Performing in-core PK
  Using 91996872 doubles for integral storage.
  We computed 905700 shell quartets total.
  Whereas there are 584821 unique shell quartets.
    54.87 percent of shell quartets recomputed by reordering.

  ==> DiskJK: Disk-Based J/K Matrices <==

    J tasked:                  Yes
    K tasked:                  Yes
    wK tasked:                  No
    Memory [MiB]:             2861
    Schwarz Cutoff:          1E-12

    OpenMP threads:             12

  Minimum eigenvalue in the overlap matrix is 3.0170546823E-04.
  Using Symmetric Orthogonalization.

  SCF Guess: Superposition of Atomic Densities via on-the-fly atomic UHF.

  ==> Iterations <==

                        Total Energy        Delta E     RMS |[F,P]|

   @UHF iter SAD:  -149.40156293050524   -1.49402e+02   0.00000e+00 
   @UHF iter   1:  -150.76381002967605   -1.36225e+00   5.04974e-03 DIIS
   @UHF iter   2:  -150.83811119313322   -7.43012e-02   3.27565e-03 DIIS
   @UHF iter   3:  -150.87317391272197   -3.50627e-02   3.92861e-04 DIIS
   @UHF iter   4:  -150.87428723101635   -1.11332e-03   1.30576e-04 DIIS
   @UHF iter   5:  -150.87441370919134   -1.26478e-04   5.10692e-05 DIIS
   @UHF iter   6:  -150.87444744347425   -3.37343e-05   1.49271e-05 DIIS
   @UHF iter   7:  -150.87445068084344   -3.23737e-06   4.01936e-06 DIIS
   @UHF iter   8:  -150.87445101079118   -3.29948e-07   2.19837e-06 DIIS
   @UHF iter   9:  -150.87445117437528   -1.63584e-07   2.00407e-06 DIIS
   @UHF iter  10:  -150.87445134773031   -1.73355e-07   1.97328e-06 DIIS
   @UHF iter  11:  -150.87445180662542   -4.58895e-07   1.92656e-06 DIIS
   @UHF iter  12:  -150.87445324561321   -1.43899e-06   1.80028e-06 DIIS
   @UHF iter  13:  -150.87445632692140   -3.08131e-06   1.49959e-06 DIIS
   @UHF iter  14:  -150.87445974018391   -3.41326e-06   1.55028e-06 DIIS
   @UHF iter  15:  -150.87445975420846   -1.40246e-08   1.41407e-06 DIIS
   @UHF iter  16:  -150.87446107715738   -1.32295e-06   1.41721e-06 DIIS
   @UHF iter  17:  -150.87446109897394   -2.18166e-08   8.97745e-08 DIIS
   @UHF iter  18:  -150.87446110400691   -5.03297e-09   3.04752e-07 DIIS
   @UHF iter  19:  -150.87446110450887   -5.01956e-10   3.11790e-08 DIIS
   @UHF iter  20:  -150.87446110451378   -4.91696e-12   1.53865e-08 DIIS
   @UHF iter  21:  -150.87446110451498   -1.19371e-12   2.38376e-09 DIIS
  Energy and wave function converged.


  ==> Post-Iterations <==

   @Spin Contamination Metric:   9.365373953E-03
   @S^2 Expected:                2.000000000E+00
   @S^2 Observed:                2.009365374E+00
   @S   Expected:                1.000000000E+00
   @S   Observed:                1.000000000E+00

    Orbital Energies [Eh]
    ---------------------

    Alpha Occupied:                                                       

       1Ap   -20.734882     2Ap   -20.558449     3Ap    -1.444191  
       4Ap    -1.343163     5Ap    -0.734735     1App   -0.734587  
       6Ap    -0.709792     7Ap    -0.636879     8Ap    -0.574965  
       2App   -0.501728  

    Alpha Virtual:                                                        

       9Ap     0.034588    10Ap     0.053274    11Ap     0.127533  
       3App    0.131542    12Ap     0.148053    13Ap     0.161232  
      14Ap     0.183458     4App    0.186206    15Ap     0.211501  
      16Ap     0.241554    17Ap     0.271986     5App    0.282515  
      18Ap     0.293352     6App    0.323275    19Ap     0.372040  
      20Ap     0.392805    21Ap     0.460329    22Ap     0.558954  
       7App    0.600115    23Ap     0.608671    24Ap     0.643810  
      25Ap     0.668832    26Ap     0.712143     8App    0.712501  
       9App    0.734683    10App    0.747275    27Ap     0.765747  
      28Ap     0.797345    11App    0.824743    29Ap     0.851831  
      30Ap     0.865566    12App    0.883259    31Ap     0.923012  
      13App    0.942000    32Ap     0.944200    33Ap     0.956639  
      14App    0.983775    34Ap     0.986137    35Ap     1.043720  
      36Ap     1.127981    37Ap     1.169020    15App    1.178005  
      38Ap     1.193701    16App    1.259330    39Ap     1.272408  
      40Ap     1.323408    17App    1.528720    41Ap     1.555148  
      18App    1.600871    42Ap     1.688911    43Ap     1.819454  
      44Ap     1.826145    19App    1.975643    45Ap     1.975682  
      46Ap     1.997062    20App    2.011182    47Ap     2.017952  
      21App    2.048197    48Ap     2.060605    22App    2.122170  
      49Ap     2.164289    50Ap     2.165215    23App    2.210400  
      24App    2.294834    51Ap     2.300595    52Ap     2.329044  
      53Ap     2.414317    25App    2.449021    54Ap     2.461982  
      26App    2.523161    55Ap     2.535365    56Ap     2.630279  
      57Ap     2.668819    27App    2.728718    58Ap     2.750299  
      59Ap     2.866280    60Ap     2.942202    28App    2.946649  
      61Ap     3.700521    62Ap     3.892786    29App    4.036402  
      30App    4.058415    63Ap     4.076330    31App    4.172567  
      64Ap     4.200041    65Ap     4.275277    32App    4.298674  
      66Ap     4.376339    33App    4.393680    67Ap     4.436428  
      34App    4.440847    68Ap     4.578189    69Ap     4.784899  
      70Ap     4.963719    35App    5.157127    71Ap     5.183639  
      72Ap     5.307536    73Ap     5.376657    36App    5.529532  
      74Ap     5.690773    75Ap     6.199177    37App    6.310291  
      76Ap     6.310334    38App    6.372692    77Ap     6.375404  
      39App    6.519494    78Ap     6.526181    79Ap     6.555586  
      80Ap     6.634103    40App    6.724756    81Ap     6.812422  
      41App    6.818468    82Ap     6.915715    42App    6.933665  
      83Ap     6.967172    84Ap     7.049464    43App    7.147812  
      44App    7.275977    85Ap     7.324362    45App    7.329135  
      86Ap     7.359952    46App    7.441254    87Ap     7.660023  
      88Ap     7.947399    89Ap     7.968633    90Ap     8.815336  
      91Ap     9.387180    92Ap    16.549300  

    Beta Occupied:                                                        

       1Ap   -20.656103     2Ap   -20.558588     3Ap    -1.343759  
       4Ap    -1.101737     5Ap    -0.708827     6Ap    -0.581404  
       7Ap    -0.542172     1App   -0.501783  

    Beta Virtual:                                                         

       8Ap     0.034232     9Ap     0.046135     2App    0.047683  
      10Ap     0.057598    11Ap     0.144183    12Ap     0.151006  
       3App    0.160413    13Ap     0.179894    14Ap     0.210174  
      15Ap     0.217899     4App    0.225930    16Ap     0.251192  
      17Ap     0.273970     5App    0.282850    18Ap     0.295595  
       6App    0.326954    19Ap     0.375838    20Ap     0.403461  
      21Ap     0.461051    22Ap     0.561887     7App    0.632433  
      23Ap     0.638985    24Ap     0.646864    25Ap     0.671865  
      26Ap     0.712823     8App    0.726300     9App    0.735820  
      10App    0.748705    27Ap     0.784485    28Ap     0.809696  
      29Ap     0.857405    11App    0.867596    30Ap     0.918392  
      12App    0.935718    31Ap     0.943780    13App    0.949611  
      32Ap     0.954127    33Ap     0.973857    34Ap     1.015889  
      14App    1.024994    35Ap     1.047644    36Ap     1.153804  
      37Ap     1.176984    15App    1.181303    38Ap     1.219417  
      16App    1.270439    39Ap     1.274501    40Ap     1.334232  
      17App    1.529566    41Ap     1.560872    18App    1.602466  
      42Ap     1.716075    43Ap     1.824793    44Ap     1.833164  
      45Ap     2.004800    19App    2.013746    46Ap     2.013964  
      20App    2.052812    47Ap     2.065673    21App    2.169876  
      22App    2.179574    48Ap     2.179648    49Ap     2.203844  
      50Ap     2.227099    23App    2.248163    24App    2.296731  
      51Ap     2.316601    52Ap     2.343296    53Ap     2.421734  
      25App    2.451468    54Ap     2.462793    26App    2.531781  
      55Ap     2.542672    56Ap     2.636400    57Ap     2.679942  
      27App    2.729863    58Ap     2.757044    59Ap     2.870917  
      60Ap     2.944966    28App    2.947335    61Ap     3.700964  
      62Ap     3.895605    29App    4.036625    30App    4.146271  
      63Ap     4.180024    64Ap     4.244149    31App    4.254639  
      65Ap     4.296265    32App    4.299005    66Ap     4.390777  
      33App    4.393870    34App    4.442380    67Ap     4.467763  
      68Ap     4.579137    69Ap     4.786304    70Ap     4.965966  
      35App    5.157113    71Ap     5.184155    72Ap     5.307762  
      73Ap     5.377691    36App    5.529614    74Ap     5.691412  
      75Ap     6.199642    37App    6.419249    76Ap     6.419275  
      38App    6.448102    77Ap     6.450876    78Ap     6.532422  
      39App    6.574454    79Ap     6.605448    80Ap     6.680249  
      40App    6.729052    81Ap     6.918272    41App    7.004540  
      82Ap     7.005584    42App    7.041919    83Ap     7.071387  
      84Ap     7.129777    43App    7.150127    44App    7.276450  
      85Ap     7.324508    45App    7.329953    86Ap     7.360421  
      46App    7.441694    87Ap     7.661336    88Ap     7.947803  
      89Ap     7.968761    90Ap     8.817833    91Ap     9.461702  
      92Ap    16.549859  

    Final Occupation by Irrep:
             Ap   App 
    DOCC [     7,    1 ]
    SOCC [     1,    1 ]

  @UHF Final Energy:  -150.87446110451498

   => Energetics <=

    Nuclear Repulsion Energy =             22.8469069222141492
    One-Electron Energy =                -253.4749911809147420
    Two-Electron Energy =                  79.7536231541856040
    Total Energy =                       -150.8744611045149782

  UHF NO Occupations:
  HONO-2 :    7 Ap 1.9970295
  HONO-1 :    8 Ap 1.0000000
  HONO-0 :    2App 1.0000000
  LUNO+0 :    9 Ap 0.0029705
  LUNO+1 :   10 Ap 0.0017131
  LUNO+2 :   11 Ap 0.0000024
  LUNO+3 :   12 Ap 0.0000019


Computation Completed


Properties will be evaluated at   0.000000,   0.000000,   0.000000 [a0]

Properties computed using the SCF density matrix

  Nuclear Dipole Moment: [e a0]
     X:    -2.1916      Y:     0.8323      Z:     0.0000

  Electronic Dipole Moment: [e a0]
     X:     2.7553      Y:    -0.2138      Z:     0.0000

  Dipole Moment: [e a0]
     X:     0.5636      Y:     0.6185      Z:     0.0000     Total:     0.8368

  Dipole Moment: [D]
     X:     1.4326      Y:     1.5720      Z:     0.0000     Total:     2.1269


*** tstop() called on c5-20.compute.lan at Tue Mar  9 14:57:34 2021
Module time:
	user time   =      58.26 seconds =       0.97 minutes
	system time =       0.87 seconds =       0.01 minutes
	total time  =          5 seconds =       0.08 minutes
Total time:
	user time   =      58.26 seconds =       0.97 minutes
	system time =       0.87 seconds =       0.01 minutes
	total time  =          5 seconds =       0.08 minutes
 MINTS: Wrapper to libmints.
   by Justin Turney

   Calculation information:
      Number of threads:                12
      Number of atoms:                   4
      Number of AO shells:              46
      Number of SO shells:              46
      Number of primitives:             82
      Number of atomic orbitals:       160
      Number of basis functions:       138

      Number of irreps:                  2
      Integral cutoff                 0.00e+00
      Number of functions per irrep: [  92   46 ]

 OEINTS: Overlap, kinetic, potential, dipole, and quadrupole integrals
         stored in file 35.

      Computing two-electron integrals...done
      Computed 22941098 non-zero two-electron integrals.
        Stored in file 33.


*** tstart() called on c5-20.compute.lan
*** at Tue Mar  9 14:57:38 2021


	Wfn Parameters:
	--------------------
	Wavefunction         = CCSD_T
	Number of irreps     = 2
	Number of MOs        = 138
	Number of active MOs = 136
	AO-Basis             = NONE
	Semicanonical        = false
	Reference            = UHF
	Print Level          = 1

	IRREP	# MOs	# FZDC	# DOCC	# SOCC	# VIRT	# FZVR
	-----	-----	------	------	------	------	------
	 Ap	   92	    2	    5	    1	    84	    0
	 App	   46	    0	    1	    1	    44	    0
	Transforming integrals...
	IWL integrals will be deleted.
	(OO|OO)...
	Presorting SO-basis two-electron integrals.
	Sorting File: SO Ints (nn|nn) nbuckets = 1
	Transforming the one-electron integrals and constructing Fock matrices
	Starting AA/AB first half-transformation.
	Sorting AA/AB half-transformed integrals.
	Starting BB first half-transformation.
	Sorting BB half-transformed integrals.
	First half integral transformation complete.
	Starting AA second half-transformation.
	Starting AB second half-transformation.
	Starting BB second half-transformation.
	Two-electron integral transformation complete.
	(OO|OV)...
	Starting AA second half-transformation.
	Starting AB second half-transformation.
	Starting BB second half-transformation.
	Two-electron integral transformation complete.
	(OO|VV)...
	Starting AA second half-transformation.
	Starting AB second half-transformation.
	Starting BB second half-transformation.
	Two-electron integral transformation complete.
	(OV|OO)...
	Starting AA/AB first half-transformation.
	Sorting AA/AB half-transformed integrals.
	Starting BB first half-transformation.
	Sorting BB half-transformed integrals.
	First half integral transformation complete.
	Starting AA second half-transformation.
	Starting AB second half-transformation.
	Starting BB second half-transformation.
	Two-electron integral transformation complete.
	(OV|OV)...
	Starting AA second half-transformation.
	Starting AB second half-transformation.
	Starting BB second half-transformation.
	Two-electron integral transformation complete.
	(OV|VV)...
	Starting AA second half-transformation.
	Starting AB second half-transformation.
	Starting BB second half-transformation.
	Two-electron integral transformation complete.
	(VV|OO)...
	Starting AA/AB first half-transformation.
	Sorting AA/AB half-transformed integrals.
	Starting BB first half-transformation.
	Sorting BB half-transformed integrals.
	First half integral transformation complete.
	Starting AA second half-transformation.
	Starting AB second half-transformation.
	Starting BB second half-transformation.
	Two-electron integral transformation complete.
	(VV|OV)...
	Starting AA second half-transformation.
	Starting AB second half-transformation.
	Starting BB second half-transformation.
	Two-electron integral transformation complete.
	(VV|VV)...
	Starting AA second half-transformation.
	Starting AB second half-transformation.
	Starting BB second half-transformation.
	Two-electron integral transformation complete.
	Frozen core energy     =   -125.82453011664165

	Size of irrep 0 of <AB|CD> integrals:     19.643 (MW) /    157.141 (MB)
	Size of irrep 1 of <AB|CD> integrals:     13.660 (MW) /    109.283 (MB)
	Total:                                    33.303 (MW) /    266.424 (MB)

	Size of irrep 0 of <ab|cd> integrals:     20.794 (MW) /    166.349 (MB)
	Size of irrep 1 of <ab|cd> integrals:     14.631 (MW) /    117.045 (MB)
	Total:                                    35.424 (MW) /    283.394 (MB)

	Size of irrep 0 of <Ab|Cd> integrals:     83.174 (MW) /    665.395 (MB)
	Size of irrep 1 of <Ab|Cd> integrals:     56.550 (MW) /    452.403 (MB)
	Total:                                   139.725 (MW) /   1117.798 (MB)

	Size of irrep 0 of <IA|BC> integrals:      5.323 (MW) /     42.586 (MB)
	Size of irrep 1 of <IA|BC> integrals:      3.193 (MW) /     25.547 (MB)
	Total:                                     8.517 (MW) /     68.133 (MB)

	Size of irrep 0 of <ia|bc> integrals:      4.348 (MW) /     34.780 (MB)
	Size of irrep 1 of <ia|bc> integrals:      2.372 (MW) /     18.972 (MB)
	Total:                                     6.719 (MW) /     53.752 (MB)

	Size of irrep 0 of <Ia|Bc> integrals:      5.472 (MW) /     43.776 (MB)
	Size of irrep 1 of <Ia|Bc> integrals:      3.309 (MW) /     26.470 (MB)
	Total:                                     8.781 (MW) /     70.246 (MB)

	Size of irrep 0 of <iA|bC> integrals:      4.232 (MW) /     33.853 (MB)
	Size of irrep 1 of <iA|bC> integrals:      2.286 (MW) /     18.289 (MB)
	Total:                                     6.518 (MW) /     52.142 (MB)

	Size of irrep 0 of tIjAb amplitudes:       0.292 (MW) /      2.335 (MB)
	Size of irrep 1 of tIjAb amplitudes:       0.120 (MW) /      0.963 (MB)
	Total:                                     0.412 (MW) /      3.297 (MB)

	Nuclear Rep. energy          =     22.84690692221415
	SCF energy                   =   -150.87446110451498
	One-electron energy          =    -84.33395260699936
	Two-electron (AA) energy     =     10.12250960025345
	Two-electron (BB) energy     =      5.38642246669294
	Two-electron (AB) energy     =     20.92818262996330
	Two-electron energy          =     36.43711469690969
	Reference energy             =   -150.87446110451720

*** tstop() called on c5-20.compute.lan at Tue Mar  9 14:58:11 2021
Module time:
	user time   =     105.64 seconds =       1.76 minutes
	system time =      18.07 seconds =       0.30 minutes
	total time  =         33 seconds =       0.55 minutes
Total time:
	user time   =     170.24 seconds =       2.84 minutes
	system time =      19.54 seconds =       0.33 minutes
	total time  =         42 seconds =       0.70 minutes
            **************************
            *                        *
            *        CCENERGY        *
            *                        *
            **************************

    Nuclear Rep. energy (wfn)     =   22.846906922214149
    SCF energy          (wfn)     = -150.874461104514978
    Reference energy    (file100) = -150.874461104517195

    Input parameters:
    -----------------
    Wave function   =     CCSD_T
    Reference wfn   =     UHF
    Brueckner       =     No
    Memory (Mbytes) =     4000.0
    Maxiter         =     50
    R_Convergence   =     1.0e-10
    E_Convergence   =     1.0e-10
    Restart         =     Yes
    DIIS            =     Yes
    AO Basis        =     NONE
    ABCD            =     NEW
    Cache Level     =     2
    Cache Type      =     LRU
    Print Level     =     1
    Num. of threads =     12
    # Amps to Print =     10
    Print MP2 Amps? =     No
    Analyze T2 Amps =     No
    Print Pair Ener =     No
    Local CC        =     No
    SCS-MP2         =     False
    SCSN-MP2        =     False
    SCS-CCSD        =     False

MP2 correlation energy -0.4165381412403291
                Solving CC Amplitude Equations
                ------------------------------
  Iter             Energy              RMS        T1Diag      D1Diag    New D1Diag    D2Diag
  ----     ---------------------    ---------   ----------  ----------  ----------   --------
     0        -0.416538141240329    0.000e+00    0.000000    0.000000    0.000000    0.000000
     1        -0.427282186374326    5.680e-02    0.010531    0.000000    0.000000    0.000000
     2        -0.435369691047260    1.686e-02    0.011020    0.000000    0.000000    0.000000
     3        -0.437482785794060    8.559e-03    0.012888    0.000000    0.000000    0.000000
     4        -0.437357650986948    2.532e-03    0.013255    0.000000    0.000000    0.000000
     5        -0.437342689777241    1.324e-03    0.013411    0.000000    0.000000    0.000000
     6        -0.437369950043681    5.154e-04    0.013434    0.000000    0.000000    0.000000
     7        -0.437374749756481    2.663e-04    0.013429    0.000000    0.000000    0.000000
     8        -0.437375319256483    9.577e-05    0.013424    0.000000    0.000000    0.000000
     9        -0.437376717279045    6.852e-05    0.013425    0.000000    0.000000    0.000000
    10        -0.437375175368643    5.727e-05    0.013426    0.000000    0.000000    0.000000
    11        -0.437375301703826    5.409e-05    0.013427    0.000000    0.000000    0.000000
    12        -0.437375104513515    5.239e-05    0.013429    0.000000    0.000000    0.000000
    13        -0.437375091349368    5.145e-05    0.013431    0.000000    0.000000    0.000000
    14        -0.437375990183145    5.019e-05    0.013441    0.000000    0.000000    0.000000
    15        -0.437376317338642    4.591e-05    0.013485    0.000000    0.000000    0.000000
    16        -0.437376091724931    3.331e-05    0.013601    0.000000    0.000000    0.000000
    17        -0.437375799854436    1.698e-05    0.013673    0.000000    0.000000    0.000000
    18        -0.437375655693800    7.984e-06    0.013693    0.000000    0.000000    0.000000
    19        -0.437375902011587    3.511e-06    0.013699    0.000000    0.000000    0.000000
    20        -0.437376019807369    1.549e-06    0.013700    0.000000    0.000000    0.000000
    21        -0.437376026583759    6.157e-07    0.013700    0.000000    0.000000    0.000000
    22        -0.437376027568827    2.790e-07    0.013700    0.000000    0.000000    0.000000
    23        -0.437376026892039    1.402e-07    0.013700    0.000000    0.000000    0.000000
    24        -0.437376026137532    5.385e-08    0.013700    0.000000    0.000000    0.000000
    25        -0.437376027030626    2.671e-08    0.013700    0.000000    0.000000    0.000000
    26        -0.437376027460680    1.861e-08    0.013700    0.000000    0.000000    0.000000
    27        -0.437376027588807    1.692e-08    0.013700    0.000000    0.000000    0.000000
    28        -0.437376027566713    1.631e-08    0.013700    0.000000    0.000000    0.000000
    29        -0.437376027475673    1.590e-08    0.013700    0.000000    0.000000    0.000000
    30        -0.437376027293602    1.540e-08    0.013700    0.000000    0.000000    0.000000
    31        -0.437376027320849    1.389e-08    0.013700    0.000000    0.000000    0.000000
    32        -0.437376027562693    8.883e-09    0.013700    0.000000    0.000000    0.000000
    33        -0.437376027652810    4.122e-09    0.013700    0.000000    0.000000    0.000000
    34        -0.437376027709123    1.753e-09    0.013700    0.000000    0.000000    0.000000
    35        -0.437376027716245    6.895e-10    0.013700    0.000000    0.000000    0.000000
    36        -0.437376027715404    2.773e-10    0.013700    0.000000    0.000000    0.000000
    37        -0.437376027713382    1.157e-10    0.013700    0.000000    0.000000    0.000000
    38        -0.437376027714527    5.557e-11    0.013700    0.000000    0.000000    0.000000

    Iterations converged.


    Largest TIA Amplitudes:
              7  87        -0.0124957917
              7  84        -0.0117252479
              4   3         0.0093275259
              7  85        -0.0092882419
              6  84        -0.0081008080
              4  10         0.0080377197
              5   2        -0.0069848998
              2   2         0.0068570954
              5   9        -0.0068456136
              2   4         0.0059826997

    Largest Tia Amplitudes:
              5  86        -0.0122848246
              5  89        -0.0121066885
              5  85        -0.0099433199
              4   1        -0.0081567848
              3   3         0.0077958108
              3  11         0.0074913976
              5  88        -0.0060776814
              3  10        -0.0058337148
              5  87        -0.0056560733
              4   4        -0.0054367114

    Largest TIJAB Amplitudes:
      6   2  92  21         0.0132805836
      6   2 101  38        -0.0096164867
      4   2  29  21        -0.0089834711
      4   2  41  40        -0.0084637681
      6   4  92  29         0.0083719031
      6   2 111  54        -0.0078366889
      7   5  90  17        -0.0077621014
      6   2 102  38         0.0075104700
      6   4 103  40         0.0074076298
      6   2  92  54         0.0073082426

    Largest Tijab Amplitudes:
      5   3  92  18         0.0076047917
      4   1  91  85        -0.0074171630
      5   2 100  17         0.0067500499
      4   1 106  85        -0.0064910695
      5   3  89  11         0.0063139085
      5   2  93  17         0.0060723030
      5   2  89  13         0.0058605950
      4   1  42   1         0.0055447482
      5   2  86  13         0.0055372212
      3   2  13  11         0.0051834675

    Largest TIjAb Amplitudes:
      3   2  12  13         0.0185798425
      6   1  38  85        -0.0159654924
      4   1 103  85        -0.0151888482
      2   1 101  85         0.0148771992
      2   1  38   1        -0.0145298676
      2   1  88  85        -0.0145079362
      5   3  10  11        -0.0141280701
      6   1  14  85         0.0133478598
      4   1  89  85         0.0129197728
      2   1 102  85        -0.0128648534

    SCF energy       (wfn)                    = -150.874461104514978
    Reference energy (file100)                = -150.874461104517195

    Opposite-spin MP2 correlation energy      =   -0.314585545146104
    Same-spin MP2 correlation energy          =   -0.101952596094225
    MP2 correlation energy                    =   -0.416538141240329
      * MP2 total energy                      = -151.290999245757519

    Opposite-spin CCSD correlation energy     =   -0.342132208835614
    Same-spin CCSD correlation energy         =   -0.095243818878913
    CCSD correlation energy                   =   -0.437376027714527
      * CCSD total energy                     = -151.311837132231716

            **************************
            *                        *
            *        CCTRIPLES       *
            *                        *
            **************************


    Wave function   =    CCSD_T
    Reference wfn   =      UHF

    Nuclear Rep. energy (wfn)                =   22.846906922214149
    SCF energy          (wfn)                = -150.874461104514978
    Reference energy    (file100)            = -150.874461104517195
    CCSD energy         (file100)            =   -0.437376027714527
    Total CCSD energy   (file100)            = -151.311837132231716

    Number of ijk index combinations:
    Spin Case AAA:                                  56
    Spin Case BBB:                                  20
    Spin Case AAB:                                 168
    Spin Case ABB:                                 120
    AAA (T) energy                             =   -0.000399447080131
    BBB (T) energy                             =   -0.000202466342943
    AAB (T) energy                             =   -0.006740522622194
    ABB (T) energy                             =   -0.005006097026476
    (T) energy                                   =   -0.012348533071745
      * CCSD(T) total energy                     = -151.324185665303474

Stephenergy -151.32418566530347
    Psi4 stopped on: Tuesday, 09 March 2021 03:00PM
    Psi4 wall time for execution: 0:03:15.67

*** Psi4 exiting successfully. Buy a developer a beer!
