
    -----------------------------------------------------------------------
          Psi4: An Open-Source Ab Initio Electronic Structure Package
                               Psi4 1.3.2 release

                         Git: Rev {HEAD} ecbda83 


    R. M. Parrish, L. A. Burns, D. G. A. Smith, A. C. Simmonett,
    A. E. DePrince III, E. G. Hohenstein, U. Bozkaya, A. Yu. Sokolov,
    R. Di Remigio, R. M. Richard, J. F. Gonthier, A. M. James,
    H. R. McAlexander, A. Kumar, M. Saitow, X. Wang, B. P. Pritchard,
    P. Verma, H. F. Schaefer III, K. Patkowski, R. A. King, E. F. Valeev,
    F. A. Evangelista, J. M. Turney, T. D. Crawford, and C. D. Sherrill,
    J. Chem. Theory Comput. 13(7) pp 3185--3197 (2017).
    (doi: 10.1021/acs.jctc.7b00174)


                         Additional Contributions by
    P. Kraus, H. Kruse, M. H. Lechner, M. C. Schieber, R. A. Shaw,
    A. Alenaizan, R. Galvelis, Z. L. Glick, S. Lehtola, and J. P. Misiewicz

    -----------------------------------------------------------------------


    Psi4 started on: Wednesday, 10 March 2021 10:57AM

    Process ID: 80509
    Host:       d4-6.compute.lan
    PSIDATADIR: /apps/gb/PSI4/1.3.2/share/psi4
    Memory:     500.0 MiB
    Threads:    12
    
  ==> Input File <==

--------------------------------------------------------------------------
memory 4 GB

molecule  {
0 3
O   -1.504262781504   -0.001191536185    0.000000000000
H   -0.556937952930    0.156670136767    0.000000000000
H   -1.894373293752    0.877278139067    0.000000000000
O    1.658717675135   -0.063956604908    0.000000000000
}
set {
basis aug-cc-pvtz
reference uhf
e_convergence 10
scf_type pk
freeze_core true
}

set ccenergy {
e_convergence 10
r_convergence 10
}

e = energy('ccsd(t)')

print_out('Stephenergy {}'.format(e))

--------------------------------------------------------------------------

  Memory set to   3.725 GiB by Python driver.

*** tstart() called on d4-6.compute.lan
*** at Wed Mar 10 10:57:12 2021

   => Loading Basis Set <=

    Name: AUG-CC-PVTZ
    Role: ORBITAL
    Keyword: BASIS
    atoms 1, 4 entry O          line   327 file /apps/gb/PSI4/1.3.2/share/psi4/basis/aug-cc-pvtz.gbs 
    atoms 2-3  entry H          line    36 file /apps/gb/PSI4/1.3.2/share/psi4/basis/aug-cc-pvtz.gbs 


         ---------------------------------------------------------
                                   SCF
               by Justin Turney, Rob Parrish, Andy Simmonett
                          and Daniel G. A. Smith
                              UHF Reference
                       12 Threads,   3814 MiB Core
         ---------------------------------------------------------

  ==> Geometry <==

    Molecular point group: cs
    Full point group: Cs

    Geometry (in Angstrom), charge = 0, multiplicity = 3:

       Center              X                  Y                   Z               Mass       
    ------------   -----------------  -----------------  -----------------  -----------------
         O           -1.504262781504    -0.001191536185     0.000000000000    15.994914619570
         H           -0.556937952930     0.156670136767     0.000000000000     1.007825032230
         H           -1.894373293752     0.877278139067     0.000000000000     1.007825032230
         O            1.658717675135    -0.063956604908     0.000000000000    15.994914619570

  Running in cs symmetry.

  Rotational constants: A =     23.26195  B =      0.20004  C =      0.19833 [cm^-1]
  Rotational constants: A = 697375.62138  B =   5997.04118  C =   5945.90968 [MHz]
  Nuclear repulsion =   22.919017475294940

  Charge       = 0
  Multiplicity = 3
  Electrons    = 18
  Nalpha       = 10
  Nbeta        = 8

  ==> Algorithm <==

  SCF Algorithm Type is PK.
  DIIS enabled.
  MOM disabled.
  Fractional occupation disabled.
  Guess Type is SAD.
  Energy threshold   = 1.00e-10
  Density threshold  = 1.00e-08
  Integral threshold = 0.00e+00

  ==> Primary Basis <==

  Basis Set: AUG-CC-PVTZ
    Blend: AUG-CC-PVTZ
    Number of shells: 46
    Number of basis function: 138
    Number of Cartesian functions: 160
    Spherical Harmonics?: true
    Max angular momentum: 3

  ==> Pre-Iterations <==

   -------------------------------------------------------
    Irrep   Nso     Nmo     Nalpha   Nbeta   Ndocc  Nsocc
   -------------------------------------------------------
     A'        92      92       0       0       0       0
     A"        46      46       0       0       0       0
   -------------------------------------------------------
    Total     138     138      10       8       8       2
   -------------------------------------------------------

  ==> Integral Setup <==

  Using in-core PK algorithm.
   Calculation information:
      Number of atoms:                   4
      Number of AO shells:              46
      Number of primitives:             82
      Number of atomic orbitals:       160
      Number of basis functions:       138

      Integral cutoff                 1.00e-12
      Number of threads:                12

  Performing in-core PK
  Using 91996872 doubles for integral storage.
  We computed 901900 shell quartets total.
  Whereas there are 584821 unique shell quartets.
    54.22 percent of shell quartets recomputed by reordering.

  ==> DiskJK: Disk-Based J/K Matrices <==

    J tasked:                  Yes
    K tasked:                  Yes
    wK tasked:                  No
    Memory [MiB]:             2861
    Schwarz Cutoff:          1E-12

    OpenMP threads:             12

  Minimum eigenvalue in the overlap matrix is 2.9319244468E-04.
  Using Symmetric Orthogonalization.

  SCF Guess: Superposition of Atomic Densities via on-the-fly atomic UHF.

  ==> Iterations <==

                        Total Energy        Delta E     RMS |[F,P]|

   @UHF iter SAD:  -149.40229335898175   -1.49402e+02   0.00000e+00 
   @UHF iter   1:  -150.76399214035214   -1.36170e+00   5.04904e-03 DIIS
   @UHF iter   2:  -150.83822370750647   -7.42316e-02   3.27397e-03 DIIS
   @UHF iter   3:  -150.87324532402994   -3.50216e-02   3.92707e-04 DIIS
   @UHF iter   4:  -150.87435786815848   -1.11254e-03   1.30526e-04 DIIS
   @UHF iter   5:  -150.87448461398296   -1.26746e-04   5.11945e-05 DIIS
   @UHF iter   6:  -150.87451892288240   -3.43089e-05   1.54367e-05 DIIS
   @UHF iter   7:  -150.87452277494953   -3.85207e-06   5.62793e-06 DIIS
   @UHF iter   8:  -150.87452365750019   -8.82551e-07   4.50014e-06 DIIS
   @UHF iter   9:  -150.87452441526588   -7.57766e-07   4.38615e-06 DIIS
   @UHF iter  10:  -150.87452558804648   -1.17278e-06   4.32778e-06 DIIS
   @UHF iter  11:  -150.87453254659545   -6.95855e-06   4.03202e-06 DIIS
   @UHF iter  12:  -150.87455034110215   -1.77945e-05   3.84210e-06 DIIS
   @UHF iter  13:  -150.87455167472450   -1.33362e-06   3.38117e-06 DIIS
   @UHF iter  14:  -150.87456944835807   -1.77736e-05   8.79829e-06 DIIS
   @UHF iter  15:  -150.87456937185456    7.65035e-08   6.34053e-06 DIIS
   @UHF iter  16:  -150.87457102076183   -1.64891e-06   6.27081e-06 DIIS
   @UHF iter  17:  -150.87457125005361   -2.29292e-07   2.69724e-06 DIIS
   @UHF iter  18:  -150.87457132782987   -7.77763e-08   1.08174e-06 DIIS
   @UHF iter  19:  -150.87457133837671   -1.05468e-08   9.96748e-08 DIIS
   @UHF iter  20:  -150.87457133832356    5.31486e-11   1.42280e-07 DIIS
   @UHF iter  21:  -150.87457133843941   -1.15847e-10   6.11838e-09 DIIS
   @UHF iter  22:  -150.87457133844083   -1.42109e-12   8.86753e-10 DIIS
  Energy and wave function converged.


  ==> Post-Iterations <==

   @Spin Contamination Metric:   9.370768123E-03
   @S^2 Expected:                2.000000000E+00
   @S^2 Observed:                2.009370768E+00
   @S   Expected:                1.000000000E+00
   @S   Observed:                1.000000000E+00

    Orbital Energies [Eh]
    ---------------------

    Alpha Occupied:                                                       

       1Ap   -20.732917     2Ap   -20.558612     3Ap    -1.442246  
       4Ap    -1.343679     5Ap    -0.733040     1App   -0.732648  
       6Ap    -0.710870     7Ap    -0.634346     8Ap    -0.575340  
       2App   -0.502077  

    Alpha Virtual:                                                        

       9Ap     0.034200    10Ap     0.053491    11Ap     0.128192  
       3App    0.132942    12Ap     0.148151    13Ap     0.160786  
      14Ap     0.183916     4App    0.186765    15Ap     0.214114  
      16Ap     0.242093    17Ap     0.264321     5App    0.286412  
      18Ap     0.303925     6App    0.320671    19Ap     0.364737  
      20Ap     0.406412    21Ap     0.460479    22Ap     0.568491  
       7App    0.602737    23Ap     0.608821    24Ap     0.627201  
      25Ap     0.682348     8App    0.709440    26Ap     0.714702  
       9App    0.736631    10App    0.748545    27Ap     0.750776  
      28Ap     0.811654    11App    0.826087    29Ap     0.837450  
      12App    0.891003    30Ap     0.891955    31Ap     0.922818  
      32Ap     0.945161    13App    0.947424    33Ap     0.951447  
      14App    0.971642    34Ap     0.979001    35Ap     1.043287  
      36Ap     1.135985    15App    1.153869    37Ap     1.170346  
      38Ap     1.185368    39Ap     1.260467    16App    1.294994  
      40Ap     1.316411    17App    1.527584    41Ap     1.586834  
      18App    1.598688    42Ap     1.715348    43Ap     1.809974  
      44Ap     1.843023    45Ap     1.977695    19App    1.977845  
      46Ap     1.979053    20App    2.013312    47Ap     2.018156  
      21App    2.048362    48Ap     2.060786    22App    2.122230  
      49Ap     2.152660    50Ap     2.176002    23App    2.212335  
      24App    2.302791    51Ap     2.311406    52Ap     2.338455  
      53Ap     2.414767    25App    2.441613    54Ap     2.457945  
      55Ap     2.490821    26App    2.526718    56Ap     2.630221  
      57Ap     2.711559    27App    2.727057    58Ap     2.734596  
      59Ap     2.860870    60Ap     2.933776    28App    2.943470  
      61Ap     3.696647    62Ap     3.892703    29App    4.037000  
      30App    4.063301    63Ap     4.074195    31App    4.179004  
      64Ap     4.209804    65Ap     4.266962    32App    4.302539  
      33App    4.391756    66Ap     4.407132    34App    4.431105  
      67Ap     4.445945    68Ap     4.603341    69Ap     4.780279  
      70Ap     4.961064    35App    5.159018    71Ap     5.175408  
      72Ap     5.299564    73Ap     5.395853    36App    5.529779  
      74Ap     5.693365    75Ap     6.191134    37App    6.312504  
      76Ap     6.312536    38App    6.375517    77Ap     6.378215  
      39App    6.517589    78Ap     6.518863    79Ap     6.559062  
      80Ap     6.636806    40App    6.736182    81Ap     6.814623  
      41App    6.820197    82Ap     6.923923    42App    6.937015  
      83Ap     6.961829    84Ap     7.050994    43App    7.149713  
      44App    7.272699    85Ap     7.327630    45App    7.329223  
      86Ap     7.365600    46App    7.434801    87Ap     7.650511  
      88Ap     7.948052    89Ap     7.965086    90Ap     8.817190  
      91Ap     9.513732    92Ap    16.350549  

    Beta Occupied:                                                        

       1Ap   -20.654135     2Ap   -20.558740     3Ap    -1.344244  
       4Ap    -1.099781     5Ap    -0.710127     6Ap    -0.580187  
       7Ap    -0.541191     1App   -0.502119  

    Beta Virtual:                                                         

       8Ap     0.034360     2App    0.049465     9Ap     0.049707  
      10Ap     0.055198    11Ap     0.143798    12Ap     0.152996  
       3App    0.161170    13Ap     0.178065    14Ap     0.207826  
      15Ap     0.225496     4App    0.227257    16Ap     0.250835  
      17Ap     0.265582     5App    0.286619    18Ap     0.306057  
       6App    0.324386    19Ap     0.368635    20Ap     0.417297  
      21Ap     0.461763    22Ap     0.572064    23Ap     0.627968  
       7App    0.635137    24Ap     0.640535    25Ap     0.687153  
      26Ap     0.715362     8App    0.721545     9App    0.739796  
      10App    0.750167    27Ap     0.767321    28Ap     0.818030  
      29Ap     0.868352    11App    0.869107    30Ap     0.920087  
      12App    0.941792    31Ap     0.941829    13App    0.949595  
      32Ap     0.952841    33Ap     0.970105    34Ap     1.017807  
      14App    1.020190    35Ap     1.045535    15App    1.157017  
      36Ap     1.163694    37Ap     1.173535    38Ap     1.216760  
      39Ap     1.263557    16App    1.305582    40Ap     1.325165  
      17App    1.528281    41Ap     1.589083    18App    1.600130  
      42Ap     1.741574    43Ap     1.815511    44Ap     1.853654  
      45Ap     1.986930    46Ap     2.015807    19App    2.015818  
      20App    2.053686    47Ap     2.065523    21App    2.170182  
      48Ap     2.176137    22App    2.179687    49Ap     2.193877  
      50Ap     2.244609    23App    2.249843    24App    2.306200  
      51Ap     2.316886    52Ap     2.361228    53Ap     2.419346  
      25App    2.444318    54Ap     2.458720    55Ap     2.497104  
      26App    2.535134    56Ap     2.637335    27App    2.728383  
      57Ap     2.728571    58Ap     2.737907    59Ap     2.862695  
      60Ap     2.938274    28App    2.944090    61Ap     3.697317  
      62Ap     3.895032    29App    4.040110    30App    4.147702  
      63Ap     4.193931    64Ap     4.245240    31App    4.262783  
      65Ap     4.277388    32App    4.302602    33App    4.391825  
      66Ap     4.410787    34App    4.431773    67Ap     4.490403  
      68Ap     4.605864    69Ap     4.781924    70Ap     4.963002  
      35App    5.159005    71Ap     5.175687    72Ap     5.299800  
      73Ap     5.397092    36App    5.529839    74Ap     5.693720  
      75Ap     6.192370    76Ap     6.421353    37App    6.421358  
      38App    6.450704    77Ap     6.453423    78Ap     6.533915  
      39App    6.571497    79Ap     6.599915    80Ap     6.681815  
      40App    6.742137    81Ap     6.926135    41App    7.005250  
      82Ap     7.006991    42App    7.046391    83Ap     7.068338  
      84Ap     7.130714    43App    7.152104    44App    7.272928  
      85Ap     7.327928    45App    7.329950    86Ap     7.366417  
      46App    7.435205    87Ap     7.651361    88Ap     7.949199  
      89Ap     7.965326    90Ap     8.818729    91Ap     9.588715  
      92Ap    16.350818  

    Final Occupation by Irrep:
             Ap   App 
    DOCC [     7,    1 ]
    SOCC [     1,    1 ]

  @UHF Final Energy:  -150.87457133844083

   => Energetics <=

    Nuclear Repulsion Energy =             22.9190174752949396
    One-Electron Energy =                -253.6308785652781523
    Two-Electron Energy =                  79.8372897515423716
    Total Energy =                       -150.8745713384408305

  UHF NO Occupations:
  HONO-2 :    7 Ap 1.9970287
  HONO-1 :    2App 1.0000000
  HONO-0 :    8 Ap 1.0000000
  LUNO+0 :    9 Ap 0.0029713
  LUNO+1 :   10 Ap 0.0017152
  LUNO+2 :   11 Ap 0.0000024
  LUNO+3 :   12 Ap 0.0000017


Computation Completed


Properties will be evaluated at   0.000000,   0.000000,   0.000000 [a0]

Properties computed using the SCF density matrix

  Nuclear Dipole Moment: [e a0]
     X:    -2.2973      Y:     0.9690      Z:     0.0000

  Electronic Dipole Moment: [e a0]
     X:     2.7579      Y:    -0.2935      Z:     0.0000

  Dipole Moment: [e a0]
     X:     0.4606      Y:     0.6755      Z:     0.0000     Total:     0.8176

  Dipole Moment: [D]
     X:     1.1708      Y:     1.7169      Z:     0.0000     Total:     2.0781


*** tstop() called on d4-6.compute.lan at Wed Mar 10 10:57:18 2021
Module time:
	user time   =      53.85 seconds =       0.90 minutes
	system time =       2.41 seconds =       0.04 minutes
	total time  =          6 seconds =       0.10 minutes
Total time:
	user time   =      53.85 seconds =       0.90 minutes
	system time =       2.41 seconds =       0.04 minutes
	total time  =          6 seconds =       0.10 minutes
 MINTS: Wrapper to libmints.
   by Justin Turney

   Calculation information:
      Number of threads:                12
      Number of atoms:                   4
      Number of AO shells:              46
      Number of SO shells:              46
      Number of primitives:             82
      Number of atomic orbitals:       160
      Number of basis functions:       138

      Number of irreps:                  2
      Integral cutoff                 0.00e+00
      Number of functions per irrep: [  92   46 ]

 OEINTS: Overlap, kinetic, potential, dipole, and quadrupole integrals
         stored in file 35.

      Computing two-electron integrals...done
      Computed 22924885 non-zero two-electron integrals.
        Stored in file 33.


*** tstart() called on d4-6.compute.lan
*** at Wed Mar 10 10:57:22 2021


	Wfn Parameters:
	--------------------
	Wavefunction         = CCSD_T
	Number of irreps     = 2
	Number of MOs        = 138
	Number of active MOs = 136
	AO-Basis             = NONE
	Semicanonical        = false
	Reference            = UHF
	Print Level          = 1

	IRREP	# MOs	# FZDC	# DOCC	# SOCC	# VIRT	# FZVR
	-----	-----	------	------	------	------	------
	 Ap	   92	    2	    5	    1	    84	    0
	 App	   46	    0	    1	    1	    44	    0
	Transforming integrals...
	IWL integrals will be deleted.
	(OO|OO)...
	Presorting SO-basis two-electron integrals.
	Sorting File: SO Ints (nn|nn) nbuckets = 1
	Transforming the one-electron integrals and constructing Fock matrices
	Starting AA/AB first half-transformation.
	Sorting AA/AB half-transformed integrals.
	Starting BB first half-transformation.
	Sorting BB half-transformed integrals.
	First half integral transformation complete.
	Starting AA second half-transformation.
	Starting AB second half-transformation.
	Starting BB second half-transformation.
	Two-electron integral transformation complete.
	(OO|OV)...
	Starting AA second half-transformation.
	Starting AB second half-transformation.
	Starting BB second half-transformation.
	Two-electron integral transformation complete.
	(OO|VV)...
	Starting AA second half-transformation.
	Starting AB second half-transformation.
	Starting BB second half-transformation.
	Two-electron integral transformation complete.
	(OV|OO)...
	Starting AA/AB first half-transformation.
	Sorting AA/AB half-transformed integrals.
	Starting BB first half-transformation.
	Sorting BB half-transformed integrals.
	First half integral transformation complete.
	Starting AA second half-transformation.
	Starting AB second half-transformation.
	Starting BB second half-transformation.
	Two-electron integral transformation complete.
	(OV|OV)...
	Starting AA second half-transformation.
	Starting AB second half-transformation.
	Starting BB second half-transformation.
	Two-electron integral transformation complete.
	(OV|VV)...
	Starting AA second half-transformation.
	Starting AB second half-transformation.
	Starting BB second half-transformation.
	Two-electron integral transformation complete.
	(VV|OO)...
	Starting AA/AB first half-transformation.
	Sorting AA/AB half-transformed integrals.
	Starting BB first half-transformation.
	Sorting BB half-transformed integrals.
	First half integral transformation complete.
	Starting AA second half-transformation.
	Starting AB second half-transformation.
	Starting BB second half-transformation.
	Two-electron integral transformation complete.
	(VV|OV)...
	Starting AA second half-transformation.
	Starting AB second half-transformation.
	Starting BB second half-transformation.
	Two-electron integral transformation complete.
	(VV|VV)...
	Starting AA second half-transformation.
	Starting AB second half-transformation.
	Starting BB second half-transformation.
	Two-electron integral transformation complete.
	Frozen core energy     =   -125.86087170277300

	Size of irrep 0 of <AB|CD> integrals:     19.643 (MW) /    157.141 (MB)
	Size of irrep 1 of <AB|CD> integrals:     13.660 (MW) /    109.283 (MB)
	Total:                                    33.303 (MW) /    266.424 (MB)

	Size of irrep 0 of <ab|cd> integrals:     20.794 (MW) /    166.349 (MB)
	Size of irrep 1 of <ab|cd> integrals:     14.631 (MW) /    117.045 (MB)
	Total:                                    35.424 (MW) /    283.394 (MB)

	Size of irrep 0 of <Ab|Cd> integrals:     83.174 (MW) /    665.395 (MB)
	Size of irrep 1 of <Ab|Cd> integrals:     56.550 (MW) /    452.403 (MB)
	Total:                                   139.725 (MW) /   1117.798 (MB)

	Size of irrep 0 of <IA|BC> integrals:      5.323 (MW) /     42.586 (MB)
	Size of irrep 1 of <IA|BC> integrals:      3.193 (MW) /     25.547 (MB)
	Total:                                     8.517 (MW) /     68.133 (MB)

	Size of irrep 0 of <ia|bc> integrals:      4.348 (MW) /     34.780 (MB)
	Size of irrep 1 of <ia|bc> integrals:      2.372 (MW) /     18.972 (MB)
	Total:                                     6.719 (MW) /     53.752 (MB)

	Size of irrep 0 of <Ia|Bc> integrals:      5.472 (MW) /     43.776 (MB)
	Size of irrep 1 of <Ia|Bc> integrals:      3.309 (MW) /     26.470 (MB)
	Total:                                     8.781 (MW) /     70.246 (MB)

	Size of irrep 0 of <iA|bC> integrals:      4.232 (MW) /     33.853 (MB)
	Size of irrep 1 of <iA|bC> integrals:      2.286 (MW) /     18.289 (MB)
	Total:                                     6.518 (MW) /     52.142 (MB)

	Size of irrep 0 of tIjAb amplitudes:       0.292 (MW) /      2.335 (MB)
	Size of irrep 1 of tIjAb amplitudes:       0.120 (MW) /      0.963 (MB)
	Total:                                     0.412 (MW) /      3.297 (MB)

	Nuclear Rep. energy          =     22.91901747529494
	SCF energy                   =   -150.87457133844083
	One-electron energy          =    -84.41353881283167
	Two-electron (AA) energy     =     10.13733927872773
	Two-electron (BB) energy     =      5.39315400497832
	Two-electron (AB) energy     =     20.95032841816219
	Two-electron energy          =     36.48082170186825
	Reference energy             =   -150.87457133844148

*** tstop() called on d4-6.compute.lan at Wed Mar 10 10:58:11 2021
Module time:
	user time   =     301.71 seconds =       5.03 minutes
	system time =      22.38 seconds =       0.37 minutes
	total time  =         49 seconds =       0.82 minutes
Total time:
	user time   =     362.95 seconds =       6.05 minutes
	system time =      25.65 seconds =       0.43 minutes
	total time  =         59 seconds =       0.98 minutes
            **************************
            *                        *
            *        CCENERGY        *
            *                        *
            **************************

    Nuclear Rep. energy (wfn)     =   22.919017475294940
    SCF energy          (wfn)     = -150.874571338440830
    Reference energy    (file100) = -150.874571338441484

    Input parameters:
    -----------------
    Wave function   =     CCSD_T
    Reference wfn   =     UHF
    Brueckner       =     No
    Memory (Mbytes) =     4000.0
    Maxiter         =     50
    R_Convergence   =     1.0e-10
    E_Convergence   =     1.0e-10
    Restart         =     Yes
    DIIS            =     Yes
    AO Basis        =     NONE
    ABCD            =     NEW
    Cache Level     =     2
    Cache Type      =     LRU
    Print Level     =     1
    Num. of threads =     12
    # Amps to Print =     10
    Print MP2 Amps? =     No
    Analyze T2 Amps =     No
    Print Pair Ener =     No
    Local CC        =     No
    SCS-MP2         =     False
    SCSN-MP2        =     False
    SCS-CCSD        =     False

MP2 correlation energy -0.4165093578144259
                Solving CC Amplitude Equations
                ------------------------------
  Iter             Energy              RMS        T1Diag      D1Diag    New D1Diag    D2Diag
  ----     ---------------------    ---------   ----------  ----------  ----------   --------
     0        -0.416509357814426    0.000e+00    0.000000    0.000000    0.000000    0.000000
     1        -0.427258110528539    5.681e-02    0.010537    0.000000    0.000000    0.000000
     2        -0.435335278607650    1.687e-02    0.011018    0.000000    0.000000    0.000000
     3        -0.437451964365099    8.558e-03    0.012885    0.000000    0.000000    0.000000
     4        -0.437326160064853    2.532e-03    0.013251    0.000000    0.000000    0.000000
     5        -0.437311788642372    1.318e-03    0.013407    0.000000    0.000000    0.000000
     6        -0.437339009062938    5.138e-04    0.013429    0.000000    0.000000    0.000000
     7        -0.437343621022830    2.633e-04    0.013423    0.000000    0.000000    0.000000
     8        -0.437344220159797    9.911e-05    0.013418    0.000000    0.000000    0.000000
     9        -0.437345581399559    7.402e-05    0.013420    0.000000    0.000000    0.000000
    10        -0.437344036378347    6.407e-05    0.013421    0.000000    0.000000    0.000000
    11        -0.437344180698340    6.128e-05    0.013422    0.000000    0.000000    0.000000
    12        -0.437343890580388    5.962e-05    0.013424    0.000000    0.000000    0.000000
    13        -0.437343879946178    5.848e-05    0.013428    0.000000    0.000000    0.000000
    14        -0.437345056544181    5.658e-05    0.013446    0.000000    0.000000    0.000000
    15        -0.437345436178166    5.001e-05    0.013519    0.000000    0.000000    0.000000
    16        -0.437345215002521    3.341e-05    0.013661    0.000000    0.000000    0.000000
    17        -0.437344869825986    1.613e-05    0.013730    0.000000    0.000000    0.000000
    18        -0.437344742039488    7.562e-06    0.013747    0.000000    0.000000    0.000000
    19        -0.437345001394591    3.342e-06    0.013752    0.000000    0.000000    0.000000
    20        -0.437345112744274    1.498e-06    0.013753    0.000000    0.000000    0.000000
    21        -0.437345120667956    5.892e-07    0.013753    0.000000    0.000000    0.000000
    22        -0.437345121865300    2.792e-07    0.013753    0.000000    0.000000    0.000000
    23        -0.437345120755393    1.448e-07    0.013753    0.000000    0.000000    0.000000
    24        -0.437345120094569    6.002e-08    0.013753    0.000000    0.000000    0.000000
    25        -0.437345121051920    3.283e-08    0.013753    0.000000    0.000000    0.000000
    26        -0.437345121509636    2.549e-08    0.013753    0.000000    0.000000    0.000000
    27        -0.437345121668485    2.386e-08    0.013753    0.000000    0.000000    0.000000
    28        -0.437345121615841    2.311e-08    0.013753    0.000000    0.000000    0.000000
    29        -0.437345121451865    2.243e-08    0.013753    0.000000    0.000000    0.000000
    30        -0.437345121187206    2.131e-08    0.013753    0.000000    0.000000    0.000000
    31        -0.437345121391430    1.794e-08    0.013753    0.000000    0.000000    0.000000
    32        -0.437345121733719    9.316e-09    0.013753    0.000000    0.000000    0.000000
    33        -0.437345121833422    4.077e-09    0.013753    0.000000    0.000000    0.000000
    34        -0.437345121883458    1.664e-09    0.013753    0.000000    0.000000    0.000000
    35        -0.437345121889896    6.586e-10    0.013753    0.000000    0.000000    0.000000
    36        -0.437345121889533    2.822e-10    0.013753    0.000000    0.000000    0.000000
    37        -0.437345121887323    1.197e-10    0.013753    0.000000    0.000000    0.000000
    38        -0.437345121888746    5.660e-11    0.013753    0.000000    0.000000    0.000000

    Iterations converged.


    Largest TIA Amplitudes:
              7  87        -0.0121528886
              7  84        -0.0116025000
              7  85        -0.0094274742
              4   3         0.0090153821
              6  84        -0.0080600743
              5   9        -0.0076673864
              4  10         0.0070078198
              5   2        -0.0069840214
              2   2         0.0068726423
              7  86        -0.0062977120

    Largest Tia Amplitudes:
              5  86        -0.0122869471
              5  89        -0.0117384402
              5  85        -0.0098171860
              4   1        -0.0097922102
              3   3         0.0089481908
              3  10        -0.0070920677
              5  88        -0.0064870668
              5  87        -0.0059913284
              3  11         0.0057752787
              4   7        -0.0057374111

    Largest TIJAB Amplitudes:
      6   2  92  20        -0.0108675812
      6   2 101  38        -0.0097380342
      6   4  92  29        -0.0096389938
      6   2  92  21        -0.0088478063
      4   2  29  20        -0.0083740636
      4   2  41  40         0.0082908377
      6   2 102  38         0.0076576834
      4   2  29  21        -0.0073906894
      6   2 111  54        -0.0072635488
      6   2  88  38         0.0072614735

    Largest Tijab Amplitudes:
      4   1  42   1         0.0070252183
      4   1  91  85        -0.0068132522
      4   1  19   1         0.0064264505
      4   1 106  85        -0.0063284947
      5   2  94  13        -0.0062842878
      5   2  89  13        -0.0058974072
      5   2 100  17        -0.0057959424
      5   2  86  13        -0.0057344440
      5   2  92  17         0.0057016005
      3   2  18  15         0.0054605745

    Largest TIjAb Amplitudes:
      3   2  12  13        -0.0182785165
      2   1  38   1        -0.0169912579
      6   1  38  85        -0.0165279574
      4   4  29  30         0.0163530736
      4   1 103  85        -0.0151144147
      2   1 101  85         0.0145956103
      2   1  88  85        -0.0143740896
      6   1 101   1        -0.0143254958
      4   1  41   1        -0.0143023978
      6   1  88   1         0.0141269168

    SCF energy       (wfn)                    = -150.874571338440830
    Reference energy (file100)                = -150.874571338441484

    Opposite-spin MP2 correlation energy      =   -0.314558306290965
    Same-spin MP2 correlation energy          =   -0.101951051523461
    MP2 correlation energy                    =   -0.416509357814426
      * MP2 total energy                      = -151.291080696255904

    Opposite-spin CCSD correlation energy     =   -0.342099545269874
    Same-spin CCSD correlation energy         =   -0.095245576618872
    CCSD correlation energy                   =   -0.437345121888746
      * CCSD total energy                     = -151.311916460330224

            **************************
            *                        *
            *        CCTRIPLES       *
            *                        *
            **************************


    Wave function   =    CCSD_T
    Reference wfn   =      UHF

    Nuclear Rep. energy (wfn)                =   22.919017475294940
    SCF energy          (wfn)                = -150.874571338440830
    Reference energy    (file100)            = -150.874571338441484
    CCSD energy         (file100)            =   -0.437345121888746
    Total CCSD energy   (file100)            = -151.311916460330224

    Number of ijk index combinations:
    Spin Case AAA:                                  56
    Spin Case BBB:                                  20
    Spin Case AAB:                                 168
    Spin Case ABB:                                 120
    AAA (T) energy                             =   -0.000399218843535
    BBB (T) energy                             =   -0.000202391198059
    AAB (T) energy                             =   -0.006736478311975
    ABB (T) energy                             =   -0.005003053466316
    (T) energy                                   =   -0.012341141819885
      * CCSD(T) total energy                     = -151.324257602150112

Stephenergy -151.3242576021501
    Psi4 stopped on: Wednesday, 10 March 2021 11:01AM
    Psi4 wall time for execution: 0:04:23.77

*** Psi4 exiting successfully. Buy a developer a beer!
