
Host: c2-24.compute.lan

Timers On : Wed Mar 10 09:44:22 2021
Timers Off: Wed Mar 10 09:46:15 2021

Wall Time:      112.95 seconds

                                                       Time (seconds)
Module                                       User      System        Wall        Calls
Total PK formation time             :     21.267u      0.783s      1.604w      1 calls
HF: Form core H                     :      0.067u      0.017s      0.005w      1 calls
HF: Form S/X                        :      0.050u      0.000s      0.003w      1 calls
HF: Guess                           :      5.767u      0.350s      0.352w      1 calls
SAD Guess                           :      5.617u      0.333s      0.342w      1 calls
HF: Form G                          :     35.867u      2.067s      1.918w     14 calls
JK: D                               :      0.017u      0.000s      0.001w     14 calls
JK: USO2AO                          :      0.250u      0.000s      0.012w     14 calls
JK: JK                              :     35.300u      2.017s      1.888w     14 calls
PK computes JK                      :     35.283u      2.017s      1.887w     14 calls
JK: AO2USO                          :      0.267u      0.033s      0.014w     14 calls
HF: Form F                          :      0.000u      0.000s      0.001w     14 calls
HF: Form D                          :      0.017u      0.000s      0.001w     14 calls
HF: DIIS                            :      0.617u      0.000s      0.033w     13 calls
DIISManager::add_entry              :      0.100u      0.000s      0.006w     13 calls
DIISManager::extrapolate            :      0.167u      0.000s      0.010w     13 calls
bMatrix setup                       :      0.067u      0.000s      0.006w     13 calls
bMatrix pseudoinverse               :      0.033u      0.000s      0.001w     13 calls
New vector                          :      0.067u      0.000s      0.003w     13 calls
HF: Form C                          :      0.783u      0.017s      0.040w     13 calls
ccenergy                            :    718.550u     66.800s     42.702w      1 calls
F build                             :     28.717u      2.517s      2.480w     24 calls
Wmbej build                         :     95.783u      8.233s      5.313w     24 calls
C->Wmbej                            :      4.717u      0.533s      0.272w     24 calls
F->Wmbej                            :     53.900u      4.533s      2.976w     24 calls
E->Wmbej                            :      8.267u      0.900s      0.463w     24 calls
X->Wmbej                            :     24.950u      1.950s      1.381w     24 calls
Z                                   :     27.383u      1.967s      1.493w     24 calls
T2 Build                            :    449.200u     43.833s     26.334w     24 calls
BT2                                 :    316.133u     33.283s     18.956w     24 calls
FT2                                 :     45.850u      3.200s      2.566w     24 calls
WmbejT2                             :     32.750u      2.700s      1.806w     24 calls
CT2                                 :     28.300u      2.783s      1.583w     24 calls
cctriples                           :    336.767u     19.267s     18.920w      1 calls

--------------------------------------------------------------------------------------
Total PK formation time             :     21.267u      0.783s      1.604w      1 calls
HF: Form core H                     :      0.067u      0.017s      0.005w      1 calls
HF: Form S/X                        :      0.050u      0.000s      0.003w      1 calls
HF: Guess                           :      5.767u      0.350s      0.352w      1 calls
| SAD Guess                         :      5.617u      0.333s      0.342w      1 calls
HF: Form G                          :     35.867u      2.067s      1.918w     14 calls
| JK: D                             :      0.017u      0.000s      0.001w     14 calls
| JK: USO2AO                        :      0.250u      0.000s      0.012w     14 calls
| JK: JK                            :     35.300u      2.017s      1.888w     14 calls
| | PK computes JK                  :     35.283u      2.017s      1.887w     14 calls
| JK: AO2USO                        :      0.267u      0.033s      0.014w     14 calls
HF: Form F                          :      0.000u      0.000s      0.001w     14 calls
HF: Form D                          :      0.017u      0.000s      0.001w     14 calls
HF: DIIS                            :      0.617u      0.000s      0.033w     13 calls
| DIISManager::add_entry            :      0.100u      0.000s      0.006w     13 calls
| DIISManager::extrapolate          :      0.167u      0.000s      0.010w     13 calls
| | bMatrix setup                   :      0.067u      0.000s      0.006w     13 calls
| | bMatrix pseudoinverse           :      0.033u      0.000s      0.001w     13 calls
| | New vector                      :      0.067u      0.000s      0.003w     13 calls
HF: Form C                          :      0.783u      0.017s      0.040w     13 calls
ccenergy                            :    718.550u     66.800s     42.702w      1 calls
| F build                           :     28.717u      2.517s      2.480w     24 calls
| Wmbej build                       :     95.783u      8.233s      5.313w     24 calls
| | C->Wmbej                        :      4.717u      0.533s      0.272w     24 calls
| | F->Wmbej                        :     53.900u      4.533s      2.976w     24 calls
| | E->Wmbej                        :      8.267u      0.900s      0.463w     24 calls
| | X->Wmbej                        :     24.950u      1.950s      1.381w     24 calls
| Z                                 :     27.383u      1.967s      1.493w     24 calls
| T2 Build                          :    449.200u     43.833s     26.334w     24 calls
| | BT2                             :    316.133u     33.283s     18.956w     24 calls
| | FT2                             :     45.850u      3.200s      2.566w     24 calls
| | WmbejT2                         :     32.750u      2.700s      1.806w     24 calls
| | CT2                             :     28.300u      2.783s      1.583w     24 calls
cctriples                           :    336.767u     19.267s     18.920w      1 calls

**************************************************************************************
