
    -----------------------------------------------------------------------
          Psi4: An Open-Source Ab Initio Electronic Structure Package
                               Psi4 1.3.2 release

                         Git: Rev {HEAD} ecbda83 


    R. M. Parrish, L. A. Burns, D. G. A. Smith, A. C. Simmonett,
    A. E. DePrince III, E. G. Hohenstein, U. Bozkaya, A. Yu. Sokolov,
    R. Di Remigio, R. M. Richard, J. F. Gonthier, A. M. James,
    H. R. McAlexander, A. Kumar, M. Saitow, X. Wang, B. P. Pritchard,
    P. Verma, H. F. Schaefer III, K. Patkowski, R. A. King, E. F. Valeev,
    F. A. Evangelista, J. M. Turney, T. D. Crawford, and C. D. Sherrill,
    J. Chem. Theory Comput. 13(7) pp 3185--3197 (2017).
    (doi: 10.1021/acs.jctc.7b00174)


                         Additional Contributions by
    P. Kraus, H. Kruse, M. H. Lechner, M. C. Schieber, R. A. Shaw,
    A. Alenaizan, R. Galvelis, Z. L. Glick, S. Lehtola, and J. P. Misiewicz

    -----------------------------------------------------------------------


    Psi4 started on: Wednesday, 10 March 2021 09:16AM

    Process ID: 20774
    Host:       c1-11.compute.lan
    PSIDATADIR: /apps/gb/PSI4/1.3.2/share/psi4
    Memory:     500.0 MiB
    Threads:    12
    
  ==> Input File <==

--------------------------------------------------------------------------
memory 4 GB

molecule  {
0 3
O    0.000000000000    0.000000000000   -1.260897717301
H    0.000000000000   -0.762389765100   -0.672080710575
H   -0.000000000000    0.762389765100   -0.672080710575
O    0.000000000000    0.000000000000    1.345592106725
}
set {
basis aug-cc-pvtz
reference uhf
e_convergence 10
scf_type pk
freeze_core true
}

set ccenergy {
e_convergence 10
r_convergence 10
}

e = energy('ccsd(t)')

print_out('Stephenergy {}'.format(e))

--------------------------------------------------------------------------

  Memory set to   3.725 GiB by Python driver.

*** tstart() called on c1-11.compute.lan
*** at Wed Mar 10 09:16:21 2021

   => Loading Basis Set <=

    Name: AUG-CC-PVTZ
    Role: ORBITAL
    Keyword: BASIS
    atoms 1, 4 entry O          line   327 file /apps/gb/PSI4/1.3.2/share/psi4/basis/aug-cc-pvtz.gbs 
    atoms 2-3  entry H          line    36 file /apps/gb/PSI4/1.3.2/share/psi4/basis/aug-cc-pvtz.gbs 


         ---------------------------------------------------------
                                   SCF
               by Justin Turney, Rob Parrish, Andy Simmonett
                          and Daniel G. A. Smith
                              UHF Reference
                       12 Threads,   3814 MiB Core
         ---------------------------------------------------------

  ==> Geometry <==

    Molecular point group: c2v
    Full point group: C2v

    Geometry (in Angstrom), charge = 0, multiplicity = 3:

       Center              X                  Y                   Z               Mass       
    ------------   -----------------  -----------------  -----------------  -----------------
         O           -0.000000000000     0.000000000000    -1.260897717301    15.994914619570
         H            0.000000000000    -0.762389765100    -0.672080710575     1.007825032230
         H           -0.000000000000     0.762389765100    -0.672080710575     1.007825032230
         O           -0.000000000000     0.000000000000     1.345592106725    15.994914619570

  Running in c2v symmetry.

  Rotational constants: A =     14.38889  B =      0.30483  C =      0.29851 [cm^-1]
  Rotational constants: A = 431368.02280  B =   9138.71880  C =   8949.12765 [MHz]
  Nuclear repulsion =   26.055396225354215

  Charge       = 0
  Multiplicity = 3
  Electrons    = 18
  Nalpha       = 10
  Nbeta        = 8

  ==> Algorithm <==

  SCF Algorithm Type is PK.
  DIIS enabled.
  MOM disabled.
  Fractional occupation disabled.
  Guess Type is SAD.
  Energy threshold   = 1.00e-10
  Density threshold  = 1.00e-08
  Integral threshold = 0.00e+00

  ==> Primary Basis <==

  Basis Set: AUG-CC-PVTZ
    Blend: AUG-CC-PVTZ
    Number of shells: 46
    Number of basis function: 138
    Number of Cartesian functions: 160
    Spherical Harmonics?: true
    Max angular momentum: 3

  ==> Pre-Iterations <==

   -------------------------------------------------------
    Irrep   Nso     Nmo     Nalpha   Nbeta   Ndocc  Nsocc
   -------------------------------------------------------
     A1        54      54       0       0       0       0
     A2        17      17       0       0       0       0
     B1        29      29       0       0       0       0
     B2        38      38       0       0       0       0
   -------------------------------------------------------
    Total     138     138      10       8       8       2
   -------------------------------------------------------

  ==> Integral Setup <==

  Using in-core PK algorithm.
   Calculation information:
      Number of atoms:                   4
      Number of AO shells:              46
      Number of primitives:             82
      Number of atomic orbitals:       160
      Number of basis functions:       138

      Integral cutoff                 1.00e-12
      Number of threads:                12

  Performing in-core PK
  Using 91996872 doubles for integral storage.
  We computed 946063 shell quartets total.
  Whereas there are 584821 unique shell quartets.
    61.77 percent of shell quartets recomputed by reordering.

  ==> DiskJK: Disk-Based J/K Matrices <==

    J tasked:                  Yes
    K tasked:                  Yes
    wK tasked:                  No
    Memory [MiB]:             2861
    Schwarz Cutoff:          1E-12

    OpenMP threads:             12

  Minimum eigenvalue in the overlap matrix is 3.4098592341E-04.
  Using Symmetric Orthogonalization.

  SCF Guess: Superposition of Atomic Densities via on-the-fly atomic UHF.

  ==> Iterations <==

                        Total Energy        Delta E     RMS |[F,P]|

   @UHF iter SAD:  -149.44653667671409   -1.49447e+02   0.00000e+00 
   @UHF iter   1:  -150.75514239453219   -1.30861e+00   6.72652e-03 DIIS
   @UHF iter   2:  -150.83142518643129   -7.62828e-02   4.26927e-03 DIIS
   @UHF iter   3:  -150.86502058421067   -3.35954e-02   6.55425e-04 DIIS
   @UHF iter   4:  -150.86728510541496   -2.26452e-03   1.83353e-04 DIIS
   @UHF iter   5:  -150.86746663041535   -1.81525e-04   7.66671e-05 DIIS
   @UHF iter   6:  -150.86750805903893   -4.14286e-05   2.67560e-05 DIIS
   @UHF iter   7:  -150.86751364152911   -5.58249e-06   8.94430e-06 DIIS
   @UHF iter   8:  -150.86751432143711   -6.79908e-07   4.00865e-06 DIIS
   @UHF iter   9:  -150.86751448328039   -1.61843e-07   1.58183e-06 DIIS
   @UHF iter  10:  -150.86751451199922   -2.87188e-08   4.15480e-07 DIIS
   @UHF iter  11:  -150.86751451365768   -1.65846e-09   8.68170e-08 DIIS
   @UHF iter  12:  -150.86751451370367   -4.59863e-11   2.02205e-08 DIIS
   @UHF iter  13:  -150.86751451370631   -2.64322e-12   7.54193e-09 DIIS
  Energy and wave function converged.


  ==> Post-Iterations <==

   @Spin Contamination Metric:   9.831454552E-03
   @S^2 Expected:                2.000000000E+00
   @S^2 Observed:                2.009831455E+00
   @S   Expected:                1.000000000E+00
   @S   Observed:                1.000000000E+00

    Orbital Energies [Eh]
    ---------------------

    Alpha Occupied:                                                       

       1A1   -20.734793     2A1   -20.567934     3A1    -1.448203  
       4A1    -1.353391     5A1    -0.746224     1B1    -0.736380  
       1B2    -0.718365     2B2    -0.636309     6A1    -0.581202  
       2B1    -0.511051  

    Alpha Virtual:                                                        

       7A1     0.036749     3B2     0.050210     8A1     0.119823  
       3B1     0.130673     9A1     0.155618     4B2     0.166294  
       4B1     0.189650     5B2     0.190646    10A1     0.192358  
       1A2     0.263414    11A1     0.263996     6B2     0.274201  
      12A1     0.289460     5B1     0.335627     7B2     0.393741  
      13A1     0.403929    14A1     0.453227     8B2     0.475052  
       9B2     0.632188     2A2     0.644452     6B1     0.650945  
      15A1     0.659263    16A1     0.678626    17A1     0.709866  
       3A2     0.723451    18A1     0.735084    10B2     0.766323  
       7B1     0.789874     8B1     0.838364    19A1     0.882074  
      11B2     0.886954     9B1     0.921703    12B2     0.942668  
      20A1     0.979130     4A2     0.980620    21A1     1.024657  
      10B1     1.027428    13B2     1.057233    22A1     1.092449  
      14B2     1.123319    23A1     1.139884     5A2     1.207145  
      11B1     1.219253    24A1     1.238814    15B2     1.250689  
      16B2     1.437689     6A2     1.510236    25A1     1.563908  
      12B1     1.582002    17B2     1.759118    26A1     1.804516  
      27A1     1.848743    18B2     1.949392    13B1     2.004563  
      28A1     2.030128    14B1     2.037164     7A2     2.073991  
      19B2     2.075505    29A1     2.088221    30A1     2.167424  
      15B1     2.169570     8A2     2.178540    20B2     2.204826  
      31A1     2.204995     9A2     2.372886    32A1     2.378561  
      16B1     2.423728    21B2     2.437985    33A1     2.460370  
      17B1     2.509940    22B2     2.521054    34A1     2.538201  
      35A1     2.731614    18B1     2.732184    23B2     2.749479  
      10A2     2.881789    36A1     2.890685    24B2     2.939215  
      25B2     3.678044    37A1     3.814956    11A2     4.032310  
      19B1     4.074985    20B1     4.108328    38A1     4.208732  
      26B2     4.229204    21B1     4.310381    27B2     4.313386  
      12A2     4.380402    22B1     4.441935    39A1     4.452547  
      40A1     4.582804    28B2     4.652441    41A1     4.745108  
      29B2     4.893312    30B2     5.150643    13A2     5.151348  
      31B2     5.273118    42A1     5.361419    23B1     5.511301  
      43A1     5.692146    44A1     6.220106    24B1     6.390602  
      32B2     6.398821    25B1     6.423012    14A2     6.442736  
      45A1     6.462272    33B2     6.530410    46A1     6.585987  
      34B2     6.699834    26B1     6.767463    27B1     6.879705  
      47A1     6.882176    15A2     6.894739    48A1     6.961383  
      49A1     6.981500    35B2     7.006261    28B1     7.165994  
      29B1     7.257957    16A2     7.305505    17A2     7.358405  
      50A1     7.373563    36B2     7.373636    51A1     7.585030  
      37B2     7.940555    52A1     7.980528    38B2     8.790193  
      53A1     9.746425    54A1    15.740746  

    Beta Occupied:                                                        

       1A1   -20.655936     2A1   -20.566553     3A1    -1.350472  
       4A1    -1.104551     1B2    -0.716624     5A1    -0.580704  
       2B2    -0.546929     1B1    -0.509046  

    Beta Virtual:                                                         

       6A1     0.037542     2B1     0.046563     3B2     0.050561  
       7A1     0.052536     8A1     0.142002     3B1     0.159897  
       4B2     0.168266     9A1     0.182346     5B2     0.192908  
      10A1     0.193941     4B1     0.226589     1A2     0.263697  
      11A1     0.267509     6B2     0.274516    12A1     0.297353  
       5B1     0.343672     7B2     0.395965    13A1     0.431756  
      14A1     0.457383     8B2     0.475179     9B2     0.631877  
       2A2     0.658716     6B1     0.669982    15A1     0.673824  
      16A1     0.702868    17A1     0.711918     3A2     0.723802  
      10B2     0.782333    18A1     0.791607     7B1     0.818115  
      19A1     0.891855    11B2     0.901026     8B1     0.918047  
       9B1     0.935049    12B2     0.946510     4A2     0.982582  
      20A1     0.984765    21A1     1.034317    10B1     1.057581  
      13B2     1.058101    22A1     1.112972    14B2     1.132169  
      23A1     1.204549     5A2     1.208295    11B1     1.241245  
      24A1     1.250682    15B2     1.251018    16B2     1.443801  
       6A2     1.510459    12B1     1.582814    25A1     1.584315  
      17B2     1.763374    26A1     1.813201    27A1     1.886965  
      18B2     1.952482    13B1     2.028058    28A1     2.088613  
      19B2     2.090070    14B1     2.103558    29A1     2.137283  
       7A2     2.141627     8A2     2.209962    30A1     2.230267  
      31A1     2.235467    15B1     2.253535    20B2     2.274738  
       9A2     2.380986    32A1     2.414140    16B1     2.453478  
      21B2     2.455701    33A1     2.479057    17B1     2.510769  
      22B2     2.528812    34A1     2.550608    18B1     2.733253  
      35A1     2.744537    23B2     2.752933    10A2     2.882170  
      36A1     2.898323    24B2     2.940938    25B2     3.678673  
      37A1     3.825232    11A2     4.031945    19B1     4.108106  
      20B1     4.228375    38A1     4.242401    26B2     4.247229  
      21B1     4.323930    27B2     4.338496    12A2     4.380074  
      22B1     4.446394    39A1     4.482990    28B2     4.655017  
      40A1     4.671229    41A1     4.747197    29B2     4.894845  
      13A2     5.151572    30B2     5.151923    31B2     5.274207  
      42A1     5.363894    23B1     5.511747    43A1     5.693799  
      44A1     6.225870    24B1     6.447756    32B2     6.456795  
      14A2     6.518838    25B1     6.529717    33B2     6.534039  
      45A1     6.538084    46A1     6.664060    34B2     6.763256  
      26B1     6.769452    47A1     6.958247    15A2     7.007493  
      48A1     7.015940    27B1     7.063355    35B2     7.115231  
      49A1     7.118946    28B1     7.169151    29B1     7.261099  
      16A2     7.306663    17A2     7.359512    36B2     7.374535  
      50A1     7.381970    51A1     7.590858    37B2     7.942023  
      52A1     7.983644    38B2     8.792100    53A1     9.818201  
      54A1    15.741703  

    Final Occupation by Irrep:
             A1    A2    B1    B2 
    DOCC [     5,    0,    1,    2 ]
    SOCC [     1,    0,    1,    0 ]

  @UHF Final Energy:  -150.86751451370631

   => Energetics <=

    Nuclear Repulsion Energy =             26.0553962253542153
    One-Electron Energy =                -259.7811556659777921
    Two-Electron Energy =                  82.8582449269172656
    Total Energy =                       -150.8675145137062827

  UHF NO Occupations:
  HONO-2 :    5 A1 1.9970621
  HONO-1 :    6 A1 1.0000000
  HONO-0 :    2 B1 1.0000000
  LUNO+0 :    7 A1 0.0029379
  LUNO+1 :    3 B2 0.0017487
  LUNO+2 :    8 A1 0.0002159
  LUNO+3 :    3 B1 0.0000125


Computation Completed


Properties will be evaluated at   0.000000,   0.000000,   0.000000 [a0]

Properties computed using the SCF density matrix

  Nuclear Dipole Moment: [e a0]
     X:    -0.0000      Y:     0.0000      Z:    -1.2597

  Electronic Dipole Moment: [e a0]
     X:     0.0000      Y:     0.0000      Z:     2.0755

  Dipole Moment: [e a0]
     X:    -0.0000      Y:     0.0000      Z:     0.8158     Total:     0.8158

  Dipole Moment: [D]
     X:    -0.0000      Y:     0.0000      Z:     2.0736     Total:     2.0736


*** tstop() called on c1-11.compute.lan at Wed Mar 10 09:16:27 2021
Module time:
	user time   =      38.26 seconds =       0.64 minutes
	system time =       2.37 seconds =       0.04 minutes
	total time  =          6 seconds =       0.10 minutes
Total time:
	user time   =      38.26 seconds =       0.64 minutes
	system time =       2.37 seconds =       0.04 minutes
	total time  =          6 seconds =       0.10 minutes
 MINTS: Wrapper to libmints.
   by Justin Turney

   Calculation information:
      Number of threads:                12
      Number of atoms:                   4
      Number of AO shells:              46
      Number of SO shells:              37
      Number of primitives:             82
      Number of atomic orbitals:       160
      Number of basis functions:       138

      Number of irreps:                  4
      Integral cutoff                 0.00e+00
      Number of functions per irrep: [  54   17   29   38 ]

 OEINTS: Overlap, kinetic, potential, dipole, and quadrupole integrals
         stored in file 35.

      Computing two-electron integrals...done
      Computed 11504223 non-zero two-electron integrals.
        Stored in file 33.


*** tstart() called on c1-11.compute.lan
*** at Wed Mar 10 09:16:30 2021


	Wfn Parameters:
	--------------------
	Wavefunction         = CCSD_T
	Number of irreps     = 4
	Number of MOs        = 138
	Number of active MOs = 136
	AO-Basis             = NONE
	Semicanonical        = false
	Reference            = UHF
	Print Level          = 1

	IRREP	# MOs	# FZDC	# DOCC	# SOCC	# VIRT	# FZVR
	-----	-----	------	------	------	------	------
	 A1	   54	    2	    3	    1	    48	    0
	 A2	   17	    0	    0	    0	    17	    0
	 B1	   29	    0	    1	    1	    27	    0
	 B2	   38	    0	    2	    0	    36	    0
	Transforming integrals...
	IWL integrals will be deleted.
	(OO|OO)...
	Presorting SO-basis two-electron integrals.
	Sorting File: SO Ints (nn|nn) nbuckets = 1
	Transforming the one-electron integrals and constructing Fock matrices
	Starting AA/AB first half-transformation.
	Sorting AA/AB half-transformed integrals.
	Starting BB first half-transformation.
	Sorting BB half-transformed integrals.
	First half integral transformation complete.
	Starting AA second half-transformation.
	Starting AB second half-transformation.
	Starting BB second half-transformation.
	Two-electron integral transformation complete.
	(OO|OV)...
	Starting AA second half-transformation.
	Starting AB second half-transformation.
	Starting BB second half-transformation.
	Two-electron integral transformation complete.
	(OO|VV)...
	Starting AA second half-transformation.
	Starting AB second half-transformation.
	Starting BB second half-transformation.
	Two-electron integral transformation complete.
	(OV|OO)...
	Starting AA/AB first half-transformation.
	Sorting AA/AB half-transformed integrals.
	Starting BB first half-transformation.
	Sorting BB half-transformed integrals.
	First half integral transformation complete.
	Starting AA second half-transformation.
	Starting AB second half-transformation.
	Starting BB second half-transformation.
	Two-electron integral transformation complete.
	(OV|OV)...
	Starting AA second half-transformation.
	Starting AB second half-transformation.
	Starting BB second half-transformation.
	Two-electron integral transformation complete.
	(OV|VV)...
	Starting AA second half-transformation.
	Starting AB second half-transformation.
	Starting BB second half-transformation.
	Two-electron integral transformation complete.
	(VV|OO)...
	Starting AA/AB first half-transformation.
	Sorting AA/AB half-transformed integrals.
	Starting BB first half-transformation.
	Sorting BB half-transformed integrals.
	First half integral transformation complete.
	Starting AA second half-transformation.
	Starting AB second half-transformation.
	Starting BB second half-transformation.
	Two-electron integral transformation complete.
	(VV|OV)...
	Starting AA second half-transformation.
	Starting AB second half-transformation.
	Starting BB second half-transformation.
	Two-electron integral transformation complete.
	(VV|VV)...
	Starting AA second half-transformation.
	Starting AB second half-transformation.
	Starting BB second half-transformation.
	Two-electron integral transformation complete.
	Frozen core energy     =   -127.07441449235732

	Size of irrep 0 of <AB|CD> integrals:      5.040 (MW) /     40.320 (MB)
	Size of irrep 1 of <AB|CD> integrals:      3.197 (MW) /     25.576 (MB)
	Size of irrep 2 of <AB|CD> integrals:      3.640 (MW) /     29.124 (MB)
	Size of irrep 3 of <AB|CD> integrals:      4.783 (MW) /     38.264 (MB)
	Total:                                    16.660 (MW) /    133.283 (MB)

	Size of irrep 0 of <ab|cd> integrals:      5.382 (MW) /     43.059 (MB)
	Size of irrep 1 of <ab|cd> integrals:      3.389 (MW) /     27.114 (MB)
	Size of irrep 2 of <ab|cd> integrals:      3.936 (MW) /     31.490 (MB)
	Size of irrep 3 of <ab|cd> integrals:      5.018 (MW) /     40.141 (MB)
	Total:                                    17.726 (MW) /    141.804 (MB)

	Size of irrep 0 of <Ab|Cd> integrals:     22.024 (MW) /    176.194 (MB)
	Size of irrep 1 of <Ab|Cd> integrals:     13.170 (MW) /    105.357 (MB)
	Size of irrep 2 of <Ab|Cd> integrals:     15.140 (MW) /    121.119 (MB)
	Size of irrep 3 of <Ab|Cd> integrals:     19.598 (MW) /    156.787 (MB)
	Total:                                    69.932 (MW) /    559.457 (MB)

	Size of irrep 0 of <IA|BC> integrals:      1.469 (MW) /     11.748 (MB)
	Size of irrep 1 of <IA|BC> integrals:      0.694 (MW) /      5.550 (MB)
	Size of irrep 2 of <IA|BC> integrals:      0.908 (MW) /      7.266 (MB)
	Size of irrep 3 of <IA|BC> integrals:      1.198 (MW) /      9.588 (MB)
	Total:                                     4.269 (MW) /     34.152 (MB)

	Size of irrep 0 of <ia|bc> integrals:      1.178 (MW) /      9.426 (MB)
	Size of irrep 1 of <ia|bc> integrals:      0.527 (MW) /      4.212 (MB)
	Size of irrep 2 of <ia|bc> integrals:      0.663 (MW) /      5.301 (MB)
	Size of irrep 3 of <ia|bc> integrals:      0.999 (MW) /      7.992 (MB)
	Total:                                     3.366 (MW) /     26.931 (MB)

	Size of irrep 0 of <Ia|Bc> integrals:      1.521 (MW) /     12.164 (MB)
	Size of irrep 1 of <Ia|Bc> integrals:      0.711 (MW) /      5.690 (MB)
	Size of irrep 2 of <Ia|Bc> integrals:      0.949 (MW) /      7.595 (MB)
	Size of irrep 3 of <Ia|Bc> integrals:      1.222 (MW) /      9.775 (MB)
	Total:                                     4.403 (MW) /     35.225 (MB)

	Size of irrep 0 of <iA|bC> integrals:      1.140 (MW) /      9.123 (MB)
	Size of irrep 1 of <iA|bC> integrals:      0.512 (MW) /      4.094 (MB)
	Size of irrep 2 of <iA|bC> integrals:      0.634 (MW) /      5.074 (MB)
	Size of irrep 3 of <iA|bC> integrals:      0.978 (MW) /      7.827 (MB)
	Total:                                     3.265 (MW) /     26.118 (MB)

	Size of irrep 0 of tIjAb amplitudes:       0.084 (MW) /      0.676 (MB)
	Size of irrep 1 of tIjAb amplitudes:       0.022 (MW) /      0.174 (MB)
	Size of irrep 2 of tIjAb amplitudes:       0.039 (MW) /      0.311 (MB)
	Size of irrep 3 of tIjAb amplitudes:       0.062 (MW) /      0.496 (MB)
	Total:                                     0.207 (MW) /      1.657 (MB)

	Nuclear Rep. energy          =     26.05539622535422
	SCF energy                   =   -150.86751451370631
	One-electron energy          =    -88.15754198634158
	Two-electron (AA) energy     =     10.77848006224193
	Two-electron (BB) energy     =      5.66122967012954
	Two-electron (AB) energy     =     21.86933600726485
	Two-electron energy          =     38.30904573963632
	Reference energy             =   -150.86751451370836

*** tstop() called on c1-11.compute.lan at Wed Mar 10 09:16:58 2021
Module time:
	user time   =     113.50 seconds =       1.89 minutes
	system time =      18.20 seconds =       0.30 minutes
	total time  =         28 seconds =       0.47 minutes
Total time:
	user time   =     156.21 seconds =       2.60 minutes
	system time =      21.13 seconds =       0.35 minutes
	total time  =         37 seconds =       0.62 minutes
            **************************
            *                        *
            *        CCENERGY        *
            *                        *
            **************************

    Nuclear Rep. energy (wfn)     =   26.055396225354215
    SCF energy          (wfn)     = -150.867514513706311
    Reference energy    (file100) = -150.867514513708358

    Input parameters:
    -----------------
    Wave function   =     CCSD_T
    Reference wfn   =     UHF
    Brueckner       =     No
    Memory (Mbytes) =     4000.0
    Maxiter         =     50
    R_Convergence   =     1.0e-10
    E_Convergence   =     1.0e-10
    Restart         =     Yes
    DIIS            =     Yes
    AO Basis        =     NONE
    ABCD            =     NEW
    Cache Level     =     2
    Cache Type      =     LRU
    Print Level     =     1
    Num. of threads =     12
    # Amps to Print =     10
    Print MP2 Amps? =     No
    Analyze T2 Amps =     No
    Print Pair Ener =     No
    Local CC        =     No
    SCS-MP2         =     False
    SCSN-MP2        =     False
    SCS-CCSD        =     False

MP2 correlation energy -0.4185947187932257
                Solving CC Amplitude Equations
                ------------------------------
  Iter             Energy              RMS        T1Diag      D1Diag    New D1Diag    D2Diag
  ----     ---------------------    ---------   ----------  ----------  ----------   --------
     0        -0.418594718793226    0.000e+00    0.000000    0.000000    0.000000    0.000000
     1        -0.429162092246125    6.048e-02    0.011860    0.000000    0.000000    0.000000
     2        -0.437477420126123    1.832e-02    0.012532    0.000000    0.000000    0.000000
     3        -0.439778370249435    1.182e-02    0.015227    0.000000    0.000000    0.000000
     4        -0.439718886935119    4.374e-03    0.016353    0.000000    0.000000    0.000000
     5        -0.439681039585931    2.995e-03    0.017119    0.000000    0.000000    0.000000
     6        -0.439747016753737    1.166e-03    0.017484    0.000000    0.000000    0.000000
     7        -0.439756705542857    5.483e-04    0.017580    0.000000    0.000000    0.000000
     8        -0.439755885501858    2.020e-04    0.017622    0.000000    0.000000    0.000000
     9        -0.439759184175580    1.067e-04    0.017628    0.000000    0.000000    0.000000
    10        -0.439754195271287    5.587e-05    0.017641    0.000000    0.000000    0.000000
    11        -0.439754683664798    2.616e-05    0.017641    0.000000    0.000000    0.000000
    12        -0.439754502247357    1.029e-05    0.017643    0.000000    0.000000    0.000000
    13        -0.439754661808122    5.302e-06    0.017642    0.000000    0.000000    0.000000
    14        -0.439754852506250    2.167e-06    0.017642    0.000000    0.000000    0.000000
    15        -0.439754858065993    9.814e-07    0.017642    0.000000    0.000000    0.000000
    16        -0.439754861978493    4.296e-07    0.017642    0.000000    0.000000    0.000000
    17        -0.439754863509221    1.456e-07    0.017642    0.000000    0.000000    0.000000
    18        -0.439754861239934    7.387e-08    0.017642    0.000000    0.000000    0.000000
    19        -0.439754860987603    2.209e-08    0.017642    0.000000    0.000000    0.000000
    20        -0.439754861199204    1.054e-08    0.017642    0.000000    0.000000    0.000000
    21        -0.439754861068899    4.449e-09    0.017642    0.000000    0.000000    0.000000
    22        -0.439754861066332    1.958e-09    0.017642    0.000000    0.000000    0.000000
    23        -0.439754861086397    7.118e-10    0.017642    0.000000    0.000000    0.000000
    24        -0.439754861087625    2.187e-10    0.017642    0.000000    0.000000    0.000000
    25        -0.439754861088482    1.210e-10    0.017642    0.000000    0.000000    0.000000
    26        -0.439754861090277    4.157e-11    0.017642    0.000000    0.000000    0.000000

    Iterations converged.


    Largest TIA Amplitudes:
              5  67        -0.0142417002
              5  65        -0.0123921042
              4  65        -0.0087880867
              2   6        -0.0086040246
              7  94         0.0081569605
              7  93        -0.0078045634
              5  66        -0.0068813943
              2   2         0.0068322129
              3   6        -0.0059908728
              2   1        -0.0056734954

    Largest Tia Amplitudes:
              2   1         0.0312978101
              3  66        -0.0235357695
              2   2         0.0150832209
              2   3        -0.0142023204
              3  69        -0.0125369272
              3  68        -0.0100789285
              5  96         0.0069913863
              3  67        -0.0066465786
              2   0        -0.0058654118
              2   6        -0.0054589331

    Largest TIJAB Amplitudes:
      7   4  54  22         0.0112595039
      7   4 100  70         0.0106131264
      6   3  98   9         0.0084769982
      7   2 109  22         0.0082980163
      4   2  70  16         0.0079938883
      6   5  50  10        -0.0078826282
      7   4 100  69         0.0077321663
      7   2 100  11        -0.0076772938
      7   2  99  11        -0.0076452965
      4   2  69  11         0.0076161308

    Largest Tijab Amplitudes:
      4   2 100  10         0.0088571906
      5   1  66  50         0.0087495682
      5   1 101   1         0.0081639152
      5   1 111   1        -0.0078460395
      4   3  51  11        -0.0074385202
      4   3  99  74        -0.0072858524
      4   3  99  69        -0.0072384657
      5   1  66  55        -0.0071668107
      4   3  99  72        -0.0065397730
      4   3  54  11        -0.0063437976

    Largest TIjAb Amplitudes:
      7   5 100 102        -0.0188619254
      7   1  54  66         0.0174778762
      5   3  72  74        -0.0167095314
      7   1 109   1        -0.0166995793
      6   4  97  99        -0.0160741388
      6   4  98 100        -0.0159769676
      4   1  21  66         0.0139007213
      7   1  49  66        -0.0138844257
      7   1  99   1         0.0135839730
      6   4 102 104        -0.0132763076

    SCF energy       (wfn)                    = -150.867514513706311
    Reference energy (file100)                = -150.867514513708358

    Opposite-spin MP2 correlation energy      =   -0.315767732928305
    Same-spin MP2 correlation energy          =   -0.102826985864921
    MP2 correlation energy                    =   -0.418594718793226
      * MP2 total energy                      = -151.286109232501587

    Opposite-spin CCSD correlation energy     =   -0.343497952172798
    Same-spin CCSD correlation energy         =   -0.096256908917479
    CCSD correlation energy                   =   -0.439754861090277
      * CCSD total energy                     = -151.307269374798636

            **************************
            *                        *
            *        CCTRIPLES       *
            *                        *
            **************************


    Wave function   =    CCSD_T
    Reference wfn   =      UHF

    Nuclear Rep. energy (wfn)                =   26.055396225354215
    SCF energy          (wfn)                = -150.867514513706311
    Reference energy    (file100)            = -150.867514513708358
    CCSD energy         (file100)            =   -0.439754861090277
    Total CCSD energy   (file100)            = -151.307269374798636

    Number of ijk index combinations:
    Spin Case AAA:                                  56
    Spin Case BBB:                                  20
    Spin Case AAB:                                 168
    Spin Case ABB:                                 120
    AAA (T) energy                             =   -0.000410327902757
    BBB (T) energy                             =   -0.000233750778383
    AAB (T) energy                             =   -0.006906676994645
    ABB (T) energy                             =   -0.005236453836462
    (T) energy                                   =   -0.012787209512247
      * CCSD(T) total energy                     = -151.320056584310890

Stephenergy -151.3200565843109
    Psi4 stopped on: Wednesday, 10 March 2021 09:18AM
    Psi4 wall time for execution: 0:01:42.78

*** Psi4 exiting successfully. Buy a developer a beer!
