 --invoking executable--
/apps/eb/cfour/2.1-iompi-2018a-serial/bin/xjoda


   *************************************************************************
         <<<     CCCCCC     CCCCCC   |||     CCCCCC     CCCCCC   >>>
       <<<      CCC        CCC       |||    CCC        CCC         >>>
      <<<      CCC        CCC        |||   CCC        CCC            >>>
    <<<        CCC        CCC        |||   CCC        CCC              >>>
      <<<      CCC        CCC        |||   CCC        CCC            >>>
       <<<      CCC        CCC       |||    CCC        CCC         >>>
         <<<     CCCCCC     CCCCCC   |||     CCCCCC     CCCCCC   >>>
   *************************************************************************

     ****************************************************************
     * CFOUR Coupled-Cluster techniques for Computational Chemistry *
     ****************************************************************
 

   Department of Chemistry                Institut fuer Physikalische Chemie
   University of Florida                  Universitaet Mainz
   Gainesville, FL 32611, USA             D-55099 Mainz, Germany

   Department of Chemistry                Fakultaet fuer Chemie und Biowiss.
   Johns Hopkins University               Karlsruher Institut fuer Technologie
   Baltimore, MD 21218, USA               D-76131 Karlsruhe, Germany

   Department of Chemistry                Department of Physical Chemistry
   Southern Methodist University          Eotvos Lorand University
   Dallas, TX 75275, USA                  H-1053 Budapest, Hungary

 
                       Version 2.1
 
                     c5-3.compute.lan                                  
                     Sat Feb  6 22:16:03 EST 2021                      
                     integer*8 version is running
 
********************************************************************************
*                          Input from ZMAT file                                *
********************************************************************************
CFOUR Optimization JOB                                                          
O   -1.149831114763    0.246520407473    0.000000000000                         
H   -0.684419590446   -0.661464177506    0.000000000000                         
O    1.149831114763   -0.246520407473    0.000000000000                         
H    0.684419590446    0.661464177506    0.000000000000                         
                                                                                
*CFOUR(CALC=CCSDT                                                               
       BASIS=AUG-PVTZ                                                           
       SCF_CONV=12                                                              
       CC_CONV=12                                                               
       SCF_MAXCYC=200                                                           
       CC_MAXCYC=150                                                            
       CC_PROGRAM=MRCC                                                          
       DERIV_LEVEL=1                                                            
       FROZEN_CORE=ON                                                           
       LINEQ_CONV=12                                                            
       OPT_MAXCYC=400                                                           
       REFERENCE=UHF                                                            
       MULTIPLICITY=3                                                           
       COORDINATES=CARTESIAN                                                    
       MEMORY=40                                                                
       MEM_UNIT=GB                                                              
       UNITS=ANGSTROM)                                                          
********************************************************************************
    -------------------------------------------------------------------
                    CFOUR Control Parameters 
    -------------------------------------------------------------------
        External           Internal           Value            Units
          Name               Name
    -------------------------------------------------------------------
       ABCDTYPE             IABCDT         STANDARD    [  0]    ***   
       ANHARMONIC           IANHAR         OFF         [  0]    ***   
       ANH_ALGORIT          IANALG         STANDARD    [  0]    ***   
       ANH_DERIVAT          IANDER         SECOND      [  1]    ***   
       ANH_MODE             ANHMOD         VIBRATION   [  0]    ***   
       ANH_STEPSIZ          ICUBST             50000          x 10-6  
       ANH_SYMMETR          IANHSM         ABELIAN     [  0]    ***   
       AO_LADDERS           IAOLAD         SINGLEPASS  [  1]    ***   
       AV_SCF               IAVSCF         OFF         [  0]    ***   
       BASIS                IBASIS         AUG-PVTZ    [ 34]    ***   
       BOTHVECTORS          BOTHVC         OFF         [  0]    ***   
       BOX_POTENT           IPIAB          OFF         [  0]    ***   
       BREIT                IBREIT         OFF         [  0]    ***   
       BRUCK_CONV           IBRTOL          10D-  4             ***   
       BRUECKNER            IBRKNR         OFF         [  0]    ***   
       BUFFERSIZE           IBUFFS              4096            ***   
       CACHE_RECS           ICHREC             10               ***   
       CALCLEVEL            ICLLVL         CCSDT       [ 18]    ***   
       CCORBOPT             ICCORB         OFF         [  0]  x 0.01  
       CC_CONV              ICCCNV          10D- 12             ***   
       CC_EXPORDER          ICCEOR              5               ***   
       CC_EXTRAPOL          ICCEXT         DIIS        [  1]    ***   
       CC_GUESS             ICCGES         MP2         [  0]    ***   
       CC_MAXCYC            ICCCYC            150              cycles 
       CC_PROGRAM           ICCPRO         MRCC        [  2]    ***   
       CHARGE               ICHRGE              0               ***   
       CHOLESKY             ICHOLE         OFF         [  0]    ***   
       CIS_CONV             ICISTL              5               ***   
       COMM_SIZE            IPSIZE            ***               ***   
       CONSTANT             ICONST         OLD         [  1]    ***   
       CONTINUUM            ICONTU         NONE        [  0]    ***   
       CONTRACTION          ICNTYP         GENERAL     [  1]    ***   
       COORDINATES          ICOORD         CARTESIAN   [  1]    ***   
       CPHF_CONVER          ICPHFT          10D- 16             ***   
       CPHF_MAXCYC          ICPHFC             64              cycles 
       CUBIC                ICUBIC         OFF         [  0]    ***   
       CURVILINEAR          ICURVY         OFF         [  0]    ***   
       DBOC                 IDBOC          OFF         [  0]    ***   
       DCT                  IDCT           OFF         [  0]    ***   
       DERIV_LEV            IDRLVL         FIRST       [  1]    ***   
       DEVMEM_SIZE          IDVMEM         *********           MByte  
       DIAG_MRCC            IEOMST          10D-  0             ***   
       DIFF_TYPE            IDIFTY         RELAXED     [  0]    ***   
       DIRECT               IDIRCT         OFF         [  0]    ***   
       DROPMO               IDRPMO      NONE         
       ECP                  IECP           OFF         [  0]    ***   
       EIGENVECTOR          IVEC                1               ***   
       EL_ANHARM            IELANH         OFF         [  0]    ***   
       EOMFOLLOW            IEOMSR         ENERGY      [  0]    ***   
       EOMIP                IEOMIP         OFF         [  0]    ***   
       EOMLEVEL             HBARFM         SAME        [  0]    ***   
       EOM_MRCC             IMRCCE         NEW         [  1]    ***   
       EOM_NONIT            EOMNON         OFF         [  0]    ***   
       EOM_NSING            IEOMSI          10D-  0             ***   
       EOM_NSTATES          IMRCCD         DAVIDSON    [  0]    ***   
       EOM_NTRIP            IEOMTR          10D-  0             ***   
       EOM_ORDER            IEXORD         ENERGY      [  0]    ***   
       EOM_PROPSTA          IEOMST              0               ***   
       ESTATE_CONV          IEXTOL          10D-  5             ***   
       ESTATE_DIAG          IEXDIG         ITERATIVE   [  0]    ***   
       ESTATE_LOCK          IESLOC         ON          [  1]    ***   
       ESTATE_MAXC          IEXMXC             40               ***   
       ESTATE_PROP          IEXPRP         OFF         [  0]    ***   
       EVAL_HESS            IRECAL              0            # of cyc.
       EXCITATION           IEXCIT              0               ***   
       EXCITE               IEXCIT         NONE        [  0]    ***   
       EXTERN_POT           IEXPOT         OFF         [  0]    ***   
       FCGRADNEW            IFCGNW         OFF         [  0]    ***   
       FC_FIELD             IFINFC              0             x 10-6  
       FD_CALTYPE           IFDCAL         GRADONLY    [  0]    ***   
       FD_PROJECT           IFDPRJ         OFF         [  1]    ***   
       FD_STEPSIZE          IDISFD              0            10-4 bohr
       FD_USEGROUP          IFDGRP         FULL        [  0]    ***   
       FILE_RECSIZ          IFLREC              4096           words  
       FINITE_PERT          IFIPER              0             x 10-6  
       FIXGEOM              IFIXGM         OFF         [  0]    ***   
       FOCK                 IFOCK          AO          [  1]    ***   
       FREQ_ALGORI          IVIALG         STANDARD    [  0]    ***   
       FROZEN_CORE          IFROCO         ON          [  1]    ***   
       GAMMA_ABCD           IGABCD         STORE       [  0]    ***   
       GAMMA_ABCI           IGABCI         STORE       [  0]    ***   
       GENBAS_1             IGNBS1              0               ***   
       GENBAS_2             IGNBS2              0               ***   
       GENBAS_3             IGNBS3              0               ***   
       GENBAS_4             IGNBS4              0               ***   
       GEO_CONV             ICONTL              5              H/bohr 
       GEO_MAXCYC           IOPTCY            400               ***   
       GEO_MAXSTEP          IMXSTP            300            millibohr
       GEO_METHOD           INR            SINGLE_POINT[  5]    ***   
       GIAO                 IGIAO          OFF         [  1]    ***   
       GIMIC                IGIMIC         OFF         [  0]    ***   
       GRID                 IGRID          OFF         [  0]    ***   
       GRID_ALGO            IGALGO         SERIAL      [  0]    ***   
       GUESS                IGUESS         MOREAD      [  0]    ***   
       HBAR                 IHBAR          OFF         [  0]    ***   
       HESS_TYPE            IHESTP         SCF         [  0]    ***   
       HF2_FILE             IHF2Fl         USE         [  1]    ***   
       HFSTABILITY          ISTABL         OFF         [  0]    ***   
       INCORE               INCORE         OFF         [  0]    ***   
       INPUT_MRCC           IMRCC          ON          [  1]    ***   
       INTEGRALS            INTTYP         VMOL        [  1]    ***   
       JODA_PRINT           IJPRNT              0               ***   
       KEYWORD_OUT          IDMPKW         NO          [  0]    ***   
       LINDEP_TOL           ILINDP              8               ***   
       LINEQ_CONV           IZTACN          10D- 12           cycles  
       LINEQ_EXPOR          ILMAXD              5               ***   
       LINEQ_MAXCY          ILMAXC            100               ***   
       LINEQ_TYPE           ILTYPE         DIIS        [  1]    ***   
       LOCK_ORBOCC          ILOCOC         OFF         [  0]    ***   
       MEMORY_SIZE          IMEMSZ         *********           words  
       MEM_UNIT             IMEMU          GB          [  3]    ***   
       MRCC                 IMRCCC         OFF         [  0]    ***   
       MULTIPLICTY          IMULTP              3               ***   
       NACOUPLING           IVCOUP         OFF         [  0]    ***   
       NEGEVAL              IDIE           ABORT       [  0]    ***   
       NEWNORM              INEWNO         OFF         [  0]    ***   
       NON-HF               INONHF         OFF         [  0]    ***   
       NTOP_TAMP            ITOPT2             15               ***   
       NUC_MODEL            INUCMO         POINT       [  0]    ***   
       OCCUPATION           IOCCU   ESTIMATED BY SCF 
       OPEN-SHELL           IOPEN          SPIN-ORBITAL[  0]    ***   
       OPTVIB               IOPTVB         OFF         [  0]    ***   
       ORBITALS             IORBTP         STANDARD    [  0]    ***   
       PARALLEL             IPARAL         ON          [  1]    ***   
       PARA_INT             IPINTS         ON          [  1]    ***   
       PARA_PRINT           IPPRIN              0               ***   
       PERT_ORB             IPTORB         CANONICAL   [  1]    ***   
       POINTS               IGRDFD              0               ***   
       PRINT                IPRNT               0               ***   
       PROPS                IPROPS         OFF         [  0]    ***   
       PROP_INTEGR          IINTYP         INTERNAL    [  0]    ***   
       PSI                  IPSI           OFF         [  0]    ***   
       QC_ALG               IQCALG         FLM         [  0]    ***   
       QC_LINALG            IQCLIN         TRIDIAG     [  2]    ***   
       QC_MAXCYC            IQCMAX          10D-100           cycles  
       QC_MAXSCFCY          IQCMSC          10D- 15           cycles  
       QC_RTRUST            IQCRTR          10D-  0           x 10-3  
       QC_SKIPSCF           IQCSKI         OFF         [  0]    ***   
       QC_START             IQCSTA          10D-  1             ***   
       QRHFGUESS            IQGUES         OFF         [  0]    ***   
       QUARTIC              IQUART         OFF         [  0]    ***   
       RAMAN_INT            IRAMIN         OFF         [  0]    ***   
       RAMAN_ORB            IRAMRE         UNRELAXED   [  0]    ***   
       RDO                  IRDOFM         ON          [  1]    ***   
       REDUCE_REPR          REDREP         Ir          [  0]    ***   
       REFERENCE            IREFNC         UHF         [  1]    ***   
       RELATIVIST           IRELAT         OFF         [  0]    ***   
       RELAX_DENS           IRDENS         ON          [  1]    ***   
       RESET_FLAGS          IRESET         OFF         [  0]    ***   
       RESTART_CC           ICCRES         OFF         [  0]    ***   
       ROT_EVEC             ROTVEC              0               ***   
       SAVE_INTS            ISVINT         OFF         [  0]    ***   
       SCALE_ON             ISTCRT              0               ***   
       SCF_CONV             ISCFCV          10D- 12             ***   
       SCF_DAMPING          IDAMP               0             x 10-3  
       SCF_EXPORDE          IRPPOR              6               ***   
       SCF_EXPSTAR          IRPPLS              8               ***   
       SCF_EXTRAPO          IRPP           ON          [  1]    ***   
       SCF_MAXCYC           ISCFCY            200              cycles 
       SCF_NOSTOP           ISCFST         OFF         [  0]    ***   
       SCF_PRINT            ISCFPR              0               ***   
       SCF_PROG             ISCFPR         SCF         [  0]    ***   
       SD_FIELD             IFINSD              0             x 10-6  
       SOPERT               IPERSO         OFF         [  0]    ***   
       SPHERICAL            IDFGHI         ON          [  1]    ***   
       SPINORBIT            ISOCAL         OFF         [  0]    ***   
       SPINROTATIO          ISRCON         OFF         [  0]    ***   
       SPIN_FLIP            ISPFLP         OFF         [  0]    ***   
       SPIN_ORBIT           ISPORB         OFF         [  0]    ***   
       SPIN_SCAL            ISCSMP         OFF         [  0]    ***   
       STEEPSCALE           ISTPSC              1000          x 10-3  
       SUBGROUP             ISUBGP         DEFAULT     [  0]    ***   
       SUBGRPAXIS           ISBXYZ         X           [  0]    ***   
       SYMMETRY             ISYM           ON          [  0]    ***   
       SYM_CHECK            ISYMCK         OVERRIDE    [  1]    ***   
       T3_EXTRAPOL          IT3EXT         OFF         [  0]    ***   
       T4_EXTRAPOL          IT4EXP         OFF         [  0]    ***   
       TAMP_SUM             IEVERY              5               ***   
       TESTSUITE            ITESTS         OFF         [  0]    ***   
       THERMOCH             ITHERM         OFF         [  0]    ***   
       TOL_CHOLESK          ITOLCH          10D-  4             ***   
       TRANGRAD             IRESRM         OFF         [  0]    ***   
       TRANS_INV            ITRAIN         USE         [  0]    ***   
       TREAT_PERT           ITREAT         SIMULTANEOUS[  0]    ***   
       TRIP_ALGORI          ITRALG         NORMAL      [  0]    ***   
       UIJ_THRESHO          IUIJTH              1               ***   
       UNITS                IUNITS         ANGSTROM    [  0]    ***   
       UNOS                 IUNOS          OFF         [  0]    ***   
       UPDATE_HESS          IHUPDT         ON          [  1]    ***   
       VIBPHASE             ISETPH         STANDARD    [  0]    ***   
       VIBRATION            IVIB           NO          [  0]    ***   
       VIB_ALGORIT          IGEALG         STANDARD    [  0]    ***   
       VNATORB              IVNORB         OFF         [  0]    ***   
       VTRAN                IVTRAN         FULL/PARTIAL[  0]    ***   
       XFIELD               IXEFLD              0             x 10-6  
       XFORM_TOL            IXFTOL          10D- 11             ***   
       YFIELD               IYEFLD              0             x 10-6  
       ZFIELD               IZEFLD              0             x 10-6  
       ZSCALE_EXP           IZEXPS         OFF         [  0]    ***   
    -------------------------------------------------------------------
  @GETXYZ-I,     4 atoms read from ZMAT.
   Rotational constants (in cm-1): 
          0.3659584765             0.3761018979            13.5691569959
   Rotational constants (in MHz): 
      10971.1606573648         11275.2528236666        406793.1498704340
********************************************************************************
   The full molecular point group is C2h .
   The largest Abelian subgroup of the full molecular point group is C2h .
   The computational point group is C2h .
********************************************************************************


 ----------------------------------------------------------------
         Coordinates used in calculation (QCOMP) 
 ----------------------------------------------------------------
 Z-matrix   Atomic            Coordinates (in bohr)
  Symbol    Number           X              Y              Z
 ----------------------------------------------------------------
     O         8        -2.22182637     0.04310126     0.00000000
     H         1        -1.03136415    -1.47361773     0.00000000
     O         8         2.22182637    -0.04310126     0.00000000
     H         1         1.03136415     1.47361773     0.00000000
 ----------------------------------------------------------------
 
   Interatomic distance matrix (Angstroms) 
 
                 O             H             O             H    
                [ 1]        [ 2]        [ 3]        [ 4]
  O    [ 1]     0.00000
  H    [ 2]     1.02032     0.00000
  O    [ 3]     2.35192     1.88060     0.00000
  H    [ 4]     1.88060     1.90364     1.02032     0.00000
 rotcon2
   Rotational constants (in cm-1): 
         13.5691569959             0.3761018979             0.3659584765
   Rotational constants (in MHz): 
     406793.1498704311         11275.2528236666         10971.1606573648
  There are   2 frozen-core orbitals.
  There are   2 frozen-core orbitals.
  There are  138 basis functions.
 @CHECKOUT-I, Total execution time (CPU/WALL):        0.18/       0.24 seconds.
--executable xjoda finished with status     0 in        0.27 seconds (walltime).
 --invoking executable--
/apps/eb/cfour/2.1-iompi-2018a-serial/bin/xvmol
 SERIAL VERSION OF MOLECULE STARTED
********************************************************************************
                    INPUT FROM MOL FILE
********************************************************************************
INTGRL        1    0    1    0    0    0    0    0    0                         
         *** CFOUR Program System (Release V0.1) ***                            
CFOUR Optimization JOB                                                          
    2    2 Z  XY      0.10E-08              0    0                              
   9999.00      3.00                                                            
          8.00000000    1    4    1    1    1    1                              
O #1  -2.221826370050260   0.043101260200769   0.000000000000000                
   11    5                                                                      
   15330.0000000000       5.080000000000000E-004 -1.150000000000000E-004        
  0.000000000000000E+000  0.000000000000000E+000  0.000000000000000E+000        
   2299.00000000000       3.929000000000000E-003 -8.950000000000000E-004        
  0.000000000000000E+000  0.000000000000000E+000  0.000000000000000E+000        
   522.400000000000       2.024300000000000E-002 -4.636000000000000E-003        
  0.000000000000000E+000  0.000000000000000E+000  0.000000000000000E+000        
   147.300000000000       7.918100000000000E-002 -1.872400000000000E-002        
  0.000000000000000E+000  0.000000000000000E+000  0.000000000000000E+000        
   47.5500000000000       0.230687000000000      -5.846300000000000E-002        
  0.000000000000000E+000  0.000000000000000E+000  0.000000000000000E+000        
   16.7600000000000       0.433118000000000      -0.136463000000000             
  0.000000000000000E+000  0.000000000000000E+000  0.000000000000000E+000        
   6.20700000000000       0.350260000000000      -0.175740000000000             
  0.000000000000000E+000  0.000000000000000E+000  0.000000000000000E+000        
   1.75200000000000       4.272800000000000E-002  0.160934000000000             
   1.00000000000000       0.000000000000000E+000  0.000000000000000E+000        
  0.688200000000000      -8.154000000000000E-003  0.603418000000000             
  0.000000000000000E+000  0.000000000000000E+000  0.000000000000000E+000        
  0.238400000000000       2.381000000000000E-003  0.378765000000000             
  0.000000000000000E+000   1.00000000000000       0.000000000000000E+000        
  7.376000000000001E-002  0.000000000000000E+000  0.000000000000000E+000        
  0.000000000000000E+000  0.000000000000000E+000   1.00000000000000             
    6    4                                                                      
   34.4600000000000       1.592800000000000E-002  0.000000000000000E+000        
  0.000000000000000E+000  0.000000000000000E+000                                
   7.74900000000000       9.974000000000000E-002  0.000000000000000E+000        
  0.000000000000000E+000  0.000000000000000E+000                                
   2.28000000000000       0.310492000000000       0.000000000000000E+000        
  0.000000000000000E+000  0.000000000000000E+000                                
  0.715600000000000       0.491026000000000        1.00000000000000             
  0.000000000000000E+000  0.000000000000000E+000                                
  0.214000000000000       0.336337000000000       0.000000000000000E+000        
   1.00000000000000       0.000000000000000E+000                                
  5.974000000000000E-002  0.000000000000000E+000  0.000000000000000E+000        
  0.000000000000000E+000   1.00000000000000                                     
    3    3                                                                      
   2.31400000000000        1.00000000000000       0.000000000000000E+000        
  0.000000000000000E+000                                                        
  0.645000000000000       0.000000000000000E+000   1.00000000000000             
  0.000000000000000E+000                                                        
  0.214000000000000       0.000000000000000E+000  0.000000000000000E+000        
   1.00000000000000                                                             
    2    2                                                                      
   1.42800000000000        1.00000000000000       0.000000000000000E+000        
  0.500000000000000       0.000000000000000E+000   1.00000000000000             
          1.00000000    1    3    1    1    1                                   
H #2  -1.031364150435517  -1.473617729104309   0.000000000000000                
    6    4                                                                      
   33.8700000000000       6.068000000000000E-003  0.000000000000000E+000        
  0.000000000000000E+000  0.000000000000000E+000                                
   5.09500000000000       4.530800000000000E-002  0.000000000000000E+000        
  0.000000000000000E+000  0.000000000000000E+000                                
   1.15900000000000       0.202822000000000       0.000000000000000E+000        
  0.000000000000000E+000  0.000000000000000E+000                                
  0.325800000000000       0.503903000000000        1.00000000000000             
  0.000000000000000E+000  0.000000000000000E+000                                
  0.102700000000000       0.383421000000000       0.000000000000000E+000        
   1.00000000000000       0.000000000000000E+000                                
  2.526000000000000E-002  0.000000000000000E+000  0.000000000000000E+000        
  0.000000000000000E+000   1.00000000000000                                     
    3    3                                                                      
   1.40700000000000        1.00000000000000       0.000000000000000E+000        
  0.000000000000000E+000                                                        
  0.388000000000000       0.000000000000000E+000   1.00000000000000             
  0.000000000000000E+000                                                        
  0.102000000000000       0.000000000000000E+000  0.000000000000000E+000        
   1.00000000000000                                                             
    2    2                                                                      
   1.05700000000000        1.00000000000000       0.000000000000000E+000        
  0.247000000000000       0.000000000000000E+000   1.00000000000000             
FINISH                                                                          
 
********************************************************************************
 ONE- AND TWO-ELECTRON INTEGRALS OVER SYMMETRY-ADAPTED AOS ARE CALCULATED.

  SPHERICAL HARMONICS ARE USED.
  
  INTEGRALS LESS THAN  0.10E-13 ARE NEGLECTED.

  NUCLEAR REPULSION ENERGY :   27.4782868141 A.U.
  @MOLECU-I, ONE ELECTRON INTEGRALS (CPU/WALL):        0.04/       0.04 SECONDS.
  @TWOEL-I,    1246094 INTEGRALS OF SYMMETRY TYPE  I I I I
  @TWOEL-I,    4620815 INTEGRALS OF SYMMETRY TYPE  I J I J
  @TWOEL-I,    2438161 INTEGRALS OF SYMMETRY TYPE  I I J J
  @TWOEL-I,    3358092 INTEGRALS OF SYMMETRY TYPE  I J K L
  @TWOEL-I, TOTAL NUMBER OF 2-E INTEGRALS   11663162.
  @MOLECU-I, TWO ELECTRON INTEGRALS (CPU/WALL):        2.29/       2.62 SECONDS.
 @CHECKOUT-I, Total execution time (CPU/WALL):        2.34/       2.67 seconds.

Running with 12 threads/proc

--executable xvmol finished with status     0 in        2.71 seconds (walltime).
 --invoking executable--
/apps/eb/cfour/2.1-iompi-2018a-serial/bin/xvmol2ja
 @GETMEM-I,  Allocated   38146 MB of main memory.
 @CHECKOUT-I, Total execution time (CPU/WALL):        0.01/       0.01 seconds.
--executable xvmol2ja finished with status     0 in        0.06 seconds (walltime).
 --invoking executable--
/apps/eb/cfour/2.1-iompi-2018a-serial/bin/xvscf
  There are  138 functions in the AO basis.

  There are 4 irreducible representations.

       Irrep        # of functions
         1                 46
         2                 23
         3                 46
         4                 23


  Parameters for SCF calculation: 
        SCF reference function:  UHF  
  Maximum number of iterations:  200
     Full symmetry point group: C2h 
     Computational point group: C2h 
        Initial density matrix: CORE                   
     SCF convergence tolerance: 10**(-12)
  DIIS convergence acceleration:  ON
          Latest start for DIIS:   8
                     DIIS order:   6

  Memory information:     904766 words required.
  Fock matrices are constructed from AO integral file.
 @GETMEM-I,  Allocated       6 MB of main memory.
  Initialization and symmetry analysis required      0.002 seconds.

  @INITGES-I, Occupancies from core Hamiltonian:

          Alpha population by irrep:   4    1    4    1
           Beta population by irrep:   3    1    3    1


 total no. of electrons in initial guess :  0.000000000000000E+000
 total no. of electrons in initial guess :  0.000000000000000E+000
  --------------------------------------------------------------------
  Iteration         Total Energy            Largest Density Difference
  --------------------------------------------------------------------
       0            27.478286814085095              0.0000000000D+00
   current occupation vector 
     4  1  4  1
     3  1  3  1
       1          -128.429981957886213              0.3010064218D+01
   current occupation vector 
     4  1  4  1
     3  1  3  1
       2          -130.610640935273750              0.1433391357D+02
   current occupation vector 
     5  1  4  0
     3  1  4  0
       3          -144.841826322488032              0.1434707767D+02
   current occupation vector 
     4  1  4  1
     3  1  3  1
       4          -142.496921211244853              0.8672882203D+01
   current occupation vector 
     5  1  4  0
     4  0  4  0
       5          -148.071304495039243              0.8672812322D+01
   current occupation vector 
     4  1  4  1
     3  1  3  1
       6          -148.999548054909042              0.2587414893D+01
   current occupation vector 
     4  1  4  1
     4  1  3  0
       7          -150.252889041718277              0.2588218018D+01
   current occupation vector 
     4  1  4  1
     3  1  3  1
       8          -150.676435536016641              0.3386713211D+00
   current occupation vector 
     4  1  4  1
     3  1  3  1
       9          -150.818390670841438              0.9596095600D-01
   current occupation vector 
     4  1  4  1
     3  1  3  1
      10          -150.820042791015965              0.1099448112D-01
   current occupation vector 
     4  1  4  1
     3  1  3  1
      11          -150.821021235608669              0.1164008579D-01
   current occupation vector 
     4  1  4  1
     3  1  3  1
      12          -150.821688755364022              0.1318897199D-01
   current occupation vector 
     4  1  4  1
     3  1  3  1
      13          -150.821841612588770              0.6331242411D-02
   current occupation vector 
     4  1  4  1
     3  1  3  1
      14          -150.821859129029519              0.2801301405D-02
   current occupation vector 
     4  1  4  1
     3  1  3  1
      15          -150.821859381062950              0.1637237155D-03
   current occupation vector 
     4  1  4  1
     3  1  3  1
      16          -150.821859453735158              0.9274094923D-04
   current occupation vector 
     4  1  4  1
     3  1  3  1
      17          -150.821859469379291              0.4332245943D-04
   current occupation vector 
     4  1  4  1
     3  1  3  1
      18          -150.821859475142475              0.2825694130D-04
   current occupation vector 
     4  1  4  1
     3  1  3  1
      19          -150.821859477867321              0.2611170766D-04
   current occupation vector 
     4  1  4  1
     3  1  3  1
      20          -150.821859478376012              0.1347647360D-04
   current occupation vector 
     4  1  4  1
     3  1  3  1
      21          -150.821859478411056              0.3425475885D-05
   current occupation vector 
     4  1  4  1
     3  1  3  1
      22          -150.821859478413899              0.8123334697D-06
   current occupation vector 
     4  1  4  1
     3  1  3  1
      23          -150.821859478411966              0.1968246814D-06
   current occupation vector 
     4  1  4  1
     3  1  3  1
      24          -150.821859478413472              0.1357919305D-06
   current occupation vector 
     4  1  4  1
     3  1  3  1
      25          -150.821859478415121              0.5361654595D-07
   current occupation vector 
     4  1  4  1
     3  1  3  1
      26          -150.821859478413984              0.1878950939D-07
   current occupation vector 
     4  1  4  1
     3  1  3  1
      27          -150.821859478414098              0.8021724507D-08
   current occupation vector 
     4  1  4  1
     3  1  3  1
      28          -150.821859478413160              0.2085473183D-08
   current occupation vector 
     4  1  4  1
     3  1  3  1
      29          -150.821859478412932              0.9126036593D-09
   current occupation vector 
     4  1  4  1
     3  1  3  1
      30          -150.821859478414922              0.5287200122D-09
   current occupation vector 
     4  1  4  1
     3  1  3  1
      31          -150.821859478414808              0.1582622366D-09
   current occupation vector 
     4  1  4  1
     3  1  3  1
      32          -150.821859478415178              0.1268197769D-09
   current occupation vector 
     4  1  4  1
     3  1  3  1
      33          -150.821859478413757              0.3444161623D-10
   current occupation vector 
     4  1  4  1
     3  1  3  1
      34          -150.821859478415377              0.4438865941D-11
   current occupation vector 
     4  1  4  1
     3  1  3  1
      35          -150.821859478414439              0.2924882558D-11
   current occupation vector 
     4  1  4  1
     3  1  3  1
      36          -150.821859478414694              0.1626171420D-11
   current occupation vector 
     4  1  4  1
     3  1  3  1
      37          -150.821859478414723              0.1765615432D-11
   current occupation vector 
     4  1  4  1
     3  1  3  1
      38          -150.821859478414524              0.1002448125D-11
   current occupation vector 
     4  1  4  1
     3  1  3  1

  SCF has converged.

 Density matrix saved to file den.dat
 total alpha spin electron number:   10.0000000000000     
 total  beta spin electron number:   8.00000000000002     
     E(SCF)=      -150.821859478414950              0.4318871649D-12

  Eigenvector printing suppressed.


       The average multiplicity is    3.0132701
  The expectation value of S**2 is    2.0199491

 @PUTMOS-I, Writing converged MOs to NEWMOS. 
 @PUTMOS-I, Symmetry   1 Full Blocks 11 Partial Blocksize   2
 @PUTMOS-I, Symmetry   2 Full Blocks  5 Partial Blocksize   3
 @PUTMOS-I, Symmetry   3 Full Blocks 11 Partial Blocksize   2
 @PUTMOS-I, Symmetry   4 Full Blocks  5 Partial Blocksize   3
 @PUTFOCK-I, Writing converged Fock matrix to NEWFOCK. 
 @PUTFOCK-I, Symmetry   1 Full Blocks 11 Partial Blocksize   2
 @PUTFOCK-I, Symmetry   2 Full Blocks  5 Partial Blocksize   3
 @PUTFOCK-I, Symmetry   3 Full Blocks 11 Partial Blocksize   2
 @PUTFOCK-I, Symmetry   4 Full Blocks  5 Partial Blocksize   3


 
  ORBITAL EIGENVALUES (ALPHA)  (1H = 27.2113834 eV)

       MO #        E(hartree)               E(eV)           FULLSYM    COMPSYM
       ----   --------------------   --------------------   -------   ---------
    1    70         -20.6558793298        -562.0750519066      Bu        Bu (3)
    2     1         -20.6558554929        -562.0744032712      Ag        Ag (1)
    3     2          -1.4216236725         -38.6843468030      Ag        Ag (1)
    4    71          -1.3758470165         -37.4387006663      Bu        Bu (3)
    5     3          -0.7366839334         -20.0461889552      Ag        Ag (1)
    6    72          -0.7095119347         -19.3068012815      Bu        Bu (3)
    7     4          -0.6559039140         -17.8480528764      Ag        Ag (1)
    8    73          -0.6289644483         -17.1149927489      Bu        Bu (3)
    9    47          -0.5899716037         -16.0539435045      Au        Au (2)
   10   116          -0.5621822041         -15.2977554962      Bg        Bg (4)
  +++++++++++++++++++++++++++++++++++++++++++++++++++++++++++++++++++++++++++++
   11     5           0.0334876623           0.9112456189      Ag        Ag (1)
   12    74           0.0475615241           1.2942148663      Bu        Bu (3)
   13    75           0.1209038581           3.2899612366      Bu        Bu (3)
   14    48           0.1384798402           3.7682280245      Au        Au (2)
   15     6           0.1505656252           4.0970989528      Ag        Ag (1)
   16     7           0.1602050415           4.3594008074      Ag        Ag (1)
   17    76           0.1842060259           5.0125007947      Bu        Bu (3)
   18     8           0.1902219267           5.1762017773      Ag        Ag (1)
   19   117           0.1976575933           5.3785365539      Bg        Bg (4)
   20    77           0.2547223114           6.9313464767      Bu        Bu (3)
   21   118           0.2662705100           7.2455889370      Bg        Bg (4)
   22     9           0.2776093210           7.5541336681      Ag        Ag (1)
   23    78           0.2966098460           8.0711642392      Bu        Bu (3)
   24    49           0.3282118567           8.9310986696      Au        Au (2)
   25    79           0.3620170784           9.8509855179      Bu        Bu (3)
   26    10           0.4062179212          11.0537515977      Ag        Ag (1)
   27    80           0.4410491091          12.0015564049      Bu        Bu (3)
   28    11           0.4481210074          12.1939925415      Ag        Ag (1)
   29    81           0.5913762675          16.0921663499      Bu        Bu (3)
   30    50           0.6403695663          17.4253417850      Au        Au (2)
   31    12           0.6511150063          17.7177400746      Ag        Ag (1)
   32    13           0.7064056697          19.2222755143      Ag        Ag (1)
   33   119           0.7079999041          19.2656568369      Bg        Bg (4)
   34    51           0.7176749389          19.5289279190      Au        Au (2)
   35    82           0.7615882014          20.7238685399      Bu        Bu (3)
   36    14           0.7643949963          20.8002453136      Ag        Ag (1)
   37    83           0.7844348780          21.3455582183      Bu        Bu (3)
   38   120           0.8428887703          22.9361694911      Bg        Bg (4)
   39    84           0.8584788358          23.3603967404      Bu        Bu (3)
   40    52           0.8901031861          24.2209390635      Au        Au (2)
   41    15           0.9239132540          25.1409577833      Ag        Ag (1)
   42    53           0.9307704270          25.3275509468      Au        Au (2)
   43    16           0.9385117859          25.5382040328      Ag        Ag (1)
   44   121           0.9415484740          25.6208365164      Bg        Bg (4)
   45    17           0.9674335074          26.3252040832      Ag        Ag (1)
   46    85           0.9722989863          26.4576004950      Bu        Bu (3)
   47   122           1.0087211114          27.4486969072      Bg        Bg (4)
   48    86           1.0206482734          27.7732514853      Bu        Bu (3)
   49    18           1.0453547622          28.4455492244      Ag        Ag (1)
   50    87           1.1219445366          30.5296629403      Bu        Bu (3)
   51    19           1.1417531700          31.0686832572      Ag        Ag (1)
   52   123           1.1646900013          31.6928261668      Bg        Bg (4)
   53    88           1.2397739463          33.7359641812      Bu        Bu (3)
   54    54           1.2821260189          34.8884226661      Au        Au (2)
   55    89           1.4038920120          38.2018437913      Bu        Bu (3)
   56    20           1.4171951566          38.5638407578      Ag        Ag (1)
   57   124           1.4644959018          39.8509594724      Bg        Bg (4)
   58    21           1.4827729674          40.3483037109      Ag        Ag (1)
   59    55           1.5124188451          41.1550090561      Au        Au (2)
   60    90           1.5774961420          42.9258523312      Bu        Bu (3)
   61    22           1.7401883186          47.3529315260      Ag        Ag (1)
   62    91           1.8869100489          51.3454327815      Bu        Bu (3)
   63    92           2.0082888112          54.6483168197      Bu        Bu (3)
   64    23           2.0302301069          55.2453698300      Ag        Ag (1)
   65    56           2.0675028242          56.2596120293      Au        Au (2)
   66   125           2.1404387875          58.2443004919      Bg        Bg (4)
   67    24           2.1521771179          58.5637166987      Ag        Ag (1)
   68    57           2.1622522598          58.8378752489      Au        Au (2)
   69    93           2.1694004794          59.0323881924      Bu        Bu (3)
   70    58           2.2515296350          61.2672361332      Au        Au (2)
   71   126           2.2677229550          61.7078787728      Bg        Bg (4)
   72    25           2.2832565770          62.1305701180      Ag        Ag (1)
   73    94           2.3516974168          63.9929400488      Bu        Bu (3)
   74    95           2.3757043146          64.6462009491      Bu        Bu (3)
   75    26           2.3784776533          64.7216673311      Ag        Ag (1)
   76    59           2.3900622140          65.0368992537      Au        Au (2)
   77   127           2.4156446516          65.7330327740      Bg        Bg (4)
   78    96           2.4455171710          66.5459053509      Bu        Bu (3)
   79    27           2.5024031946          68.0938527501      Ag        Ag (1)
   80    28           2.5473765524          69.3176400316      Ag        Ag (1)
   81   128           2.5609420505          69.6867760000      Bg        Bg (4)
   82    29           2.6778616136          72.8683190599      Ag        Ag (1)
   83    97           2.7167211662          73.9257412449      Bu        Bu (3)
   84    30           2.7255836369          74.1669013323      Ag        Ag (1)
   85    60           2.7594323208          75.0879708482      Au        Au (2)
   86   129           2.7792871463          75.6282481171      Bg        Bg (4)
   87    98           2.8524145689          77.6181464497      Bu        Bu (3)
   88    99           2.9704627619          80.8304010891      Bu        Bu (3)
   89   100           3.6319895130          98.8314591418      Bu        Bu (3)
   90    31           3.7046182897         100.8077886309      Ag        Ag (1)
   91   130           3.9386850701         107.1770695350      Bg        Bg (4)
   92   101           4.0389135876         109.9044261506      Bu        Bu (3)
   93    61           4.0802779617         111.0300079930      Au        Au (2)
   94   131           4.1076568894         111.7750264941      Bg        Bg (4)
   95    62           4.1341826000         112.4968277753      Au        Au (2)
   96    32           4.2327191803         115.1781444406      Ag        Ag (1)
   97   132           4.3078422084         117.2223459597      Bg        Bg (4)
   98    63           4.3861842352         119.3541408882      Au        Au (2)
   99    33           4.4388587763         120.7874880198      Ag        Ag (1)
  100   102           4.4564569764         121.2663593894      Bu        Bu (3)
  101    34           4.5768804953         124.5432499349      Ag        Ag (1)
  102   103           4.6434039650         126.3534455740      Bu        Bu (3)
  103    35           4.6946046460         127.7466869347      Ag        Ag (1)
  104   104           4.8074644994         130.8177596762      Bu        Bu (3)
  105   105           5.0097458670         136.3221155229      Bu        Bu (3)
  106    36           5.0326886479         136.9464203306      Ag        Ag (1)
  107   133           5.1261677554         139.4901161655      Bg        Bg (4)
  108   106           5.1271334803         139.5163948755      Bu        Bu (3)
  109    64           5.1664323889         140.5857725459      Au        Au (2)
  110    37           5.3805741793         146.4128669060      Ag        Ag (1)
  111    38           6.2154646600         169.1313918725      Ag        Ag (1)
  112   107           6.2308840803         169.5509756297      Bu        Bu (3)
  113    65           6.5009852808         176.9008029546      Au        Au (2)
  114    66           6.5717752167         178.8270950398      Au        Au (2)
  115    39           6.5984006221         179.5516091544      Ag        Ag (1)
  116   134           6.6071791201         179.7904842292      Bg        Bg (4)
  117   108           6.6167410794         180.0506783688      Bu        Bu (3)
  118   135           6.7043491089         182.4346140504      Bg        Bg (4)
  119    40           6.7283069274         183.0865394339      Ag        Ag (1)
  120   109           6.7449650380         183.5398296694      Bu        Bu (3)
  121    67           6.9878271718         190.1484443059      Au        Au (2)
  122    41           6.9956590599         190.3615608149      Ag        Ag (1)
  123   136           7.0112723726         190.7864206532      Bg        Bg (4)
  124   110           7.0718871142         192.4358316266      Bu        Bu (3)
  125    68           7.0746733450         192.5116488214      Au        Au (2)
  126   137           7.0792843216         192.6371198738      Bg        Bg (4)
  127    42           7.0813683990         192.6938305008      Ag        Ag (1)
  128   111           7.1503318463         194.5704213067      Bu        Bu (3)
  129   138           7.2141975871         196.3082964654      Bg        Bg (4)
  130   112           7.2298138635         196.7332369491      Bu        Bu (3)
  131    69           7.2349350776         196.8725922705      Au        Au (2)
  132    43           7.3330488112         199.5424026927      Ag        Ag (1)
  133    44           7.4855000481         203.6908117502      Ag        Ag (1)
  134   113           7.6538305613         208.2713178815      Bu        Bu (3)
  135   114           7.7911199006         212.0071507315      Bu        Bu (3)
  136    45           7.8864194283         214.6003827177      Ag        Ag (1)
  137    46          12.6058132885         343.0216184628      Ag        Ag (1)
  138   115          12.8509195906         349.6913000221      Bu        Bu (3)


 
  ORBITAL EIGENVALUES ( BETA)  (1H = 27.2113834 eV)

       MO #        E(hartree)               E(eV)           FULLSYM    COMPSYM
       ----   --------------------   --------------------   -------   ---------
    1     1         -20.6141873698        -560.9405559978     E          Ag (1)
    2    70         -20.6141813627        -560.9403925375     E          Bu (3)
    3     2          -1.2594603144         -34.2716574932      Ag        Ag (1)
    4    71          -1.2034657727         -32.7479685492      Bu        Bu (3)
    5    72          -0.6419337684         -17.4679058889      Bu        Bu (3)
    6     3          -0.6349305436         -17.2773384548      Ag        Ag (1)
    7    47          -0.5418885274         -14.7455364805      Au        Au (2)
    8   116          -0.5109706461         -13.9042181561      Bg        Bg (4)
  +++++++++++++++++++++++++++++++++++++++++++++++++++++++++++++++++++++++++++++
    9     4           0.0330511367           0.8993671519      Ag        Ag (1)
   10     5           0.0375266289           1.0211514859      Ag        Ag (1)
   11    73           0.0388975160           1.0584552198      Bu        Bu (3)
   12    74           0.1027508326           2.7959923000      Bu        Bu (3)
   13    75           0.1259639787           3.4276541195      Bu        Bu (3)
   14    48           0.1407509716           3.8300286521      Au        Au (2)
   15     6           0.1588388993           4.3222261886      Ag        Ag (1)
   16     7           0.1790494095           4.8721821297      Ag        Ag (1)
   17     8           0.1933342694           5.2608929290      Ag        Ag (1)
   18   117           0.1990918114           5.4175636122      Bg        Bg (4)
   19    76           0.2548898151           6.9359044826      Bu        Bu (3)
   20    77           0.2591263289           7.0511858837      Bu        Bu (3)
   21   118           0.2664882647           7.2515143429      Bg        Bg (4)
   22     9           0.2795466654           7.6068514892      Ag        Ag (1)
   23    78           0.3053086065           8.3078695459      Bu        Bu (3)
   24    49           0.3300781129           8.9818820809      Au        Au (2)
   25    79           0.3665396934           9.9740521279      Bu        Bu (3)
   26    10           0.4465596394          12.1515055575      Ag        Ag (1)
   27    80           0.4627869921          12.5930742741      Bu        Bu (3)
   28    11           0.4714433110          12.8286246861      Ag        Ag (1)
   29    81           0.5946612874          16.1815562848      Bu        Bu (3)
   30    12           0.6468873839          17.6027006204      Ag        Ag (1)
   31    50           0.6581988820          17.9105021326      Au        Au (2)
   32   119           0.7092234941          19.2989524147      Bg        Bg (4)
   33    51           0.7162897182          19.4912341461      Au        Au (2)
   34    13           0.7377622304          20.0755309086      Ag        Ag (1)
   35    14           0.7887402301          21.4627128030      Ag        Ag (1)
   36    82           0.7899805087          21.4964625006      Bu        Bu (3)
   37    83           0.8118120889          22.0905299994      Bu        Bu (3)
   38   120           0.8582361764          23.3537936429      Bg        Bg (4)
   39    84           0.8779179735          23.8893625713      Bu        Bu (3)
   40    52           0.8991890981          24.4681792986      Au        Au (2)
   41    53           0.9346518617          25.4331701554      Au        Au (2)
   42    15           0.9410333788          25.6068200621      Ag        Ag (1)
   43   121           0.9497107442          25.8429431803      Bg        Bg (4)
   44    16           0.9511855933          25.8830758628      Ag        Ag (1)
   45    85           0.9892515022          26.9189019046      Bu        Bu (3)
   46   122           1.0124346124          27.5497464041      Bg        Bg (4)
   47    17           1.0160374979          27.6477859030      Ag        Ag (1)
   48    86           1.0322168122          28.0880474300      Bu        Bu (3)
   49    18           1.0704496374          29.1284154945      Ag        Ag (1)
   50    87           1.1277501647          30.6876421122      Bu        Bu (3)
   51   123           1.1686390128          31.8002842334      Bg        Bg (4)
   52    19           1.1881092353          32.3300959217      Ag        Ag (1)
   53    88           1.2510464615          34.0427049156      Bu        Bu (3)
   54    54           1.2866383257          35.0112087791      Au        Au (2)
   55    20           1.4374652529          39.1154181206      Ag        Ag (1)
   56   124           1.4624330098          39.7948253268      Bg        Bg (4)
   57    89           1.4651501119          39.8687614334      Bu        Bu (3)
   58    55           1.5108518717          41.1123695423      Au        Au (2)
   59    21           1.5136690961          41.1890301142      Ag        Ag (1)
   60    90           1.5958261652          43.4246376218      Bu        Bu (3)
   61    22           1.7551511726          47.7600914829      Ag        Ag (1)
   62    91           1.9010456210          51.7300812544      Bu        Bu (3)
   63    92           2.0356503667          55.3928625972      Bu        Bu (3)
   64    23           2.0693105959          56.3088039984      Ag        Ag (1)
   65    56           2.1082354516          57.3680031719      Au        Au (2)
   66    57           2.1858762231          59.4807159719      Au        Au (2)
   67    24           2.1978572344          59.8067358644      Ag        Ag (1)
   68   125           2.2014616611          59.9048173002      Bg        Bg (4)
   69    93           2.2417315550          61.0006168223      Bu        Bu (3)
   70   126           2.2854705135          62.1908143922      Bg        Bg (4)
   71    58           2.2872075356          62.2380811672      Au        Au (2)
   72    25           2.3027742920          62.6616741433      Ag        Ag (1)
   73    94           2.3851423003          64.9030215965      Bu        Bu (3)
   74    95           2.4003080963          65.3157038871      Bu        Bu (3)
   75    59           2.4026455807          65.3793100712      Au        Au (2)
   76    26           2.4043506162          65.4257064452      Ag        Ag (1)
   77   127           2.4368107231          66.3089908582      Bg        Bg (4)
   78    96           2.4830482844          67.5671788675      Bu        Bu (3)
   79    27           2.5208864654          68.5968081192      Ag        Ag (1)
   80   128           2.5793163796          70.1867669154      Bg        Bg (4)
   81    28           2.5842882270          70.3220577613      Ag        Ag (1)
   82    29           2.6998090062          73.4655379757      Ag        Ag (1)
   83    97           2.7376966375          74.4965128353      Bu        Bu (3)
   84    60           2.7659018433          75.2640155046      Au        Au (2)
   85    30           2.7718322755          75.4253907688      Ag        Ag (1)
   86   129           2.7845116126          75.7704130709      Bg        Bg (4)
   87    98           2.8951069833          78.7798661079      Bu        Bu (3)
   88    99           3.0012472345          81.6680891751      Bu        Bu (3)
   89   100           3.6349225374          98.9112707946      Bu        Bu (3)
   90    31           3.7054420243         100.8302035894      Ag        Ag (1)
   91   130           3.9394131497         107.1968815876      Bg        Bg (4)
   92   101           4.0429761683         110.0149745936      Bu        Bu (3)
   93    61           4.0960325834         111.4587130454      Au        Au (2)
   94   131           4.1253981886         112.2577917889      Bg        Bg (4)
   95    62           4.1382156535         112.6065727385      Au        Au (2)
   96   132           4.3021848489         117.0684013802      Bg        Bg (4)
   97    32           4.3126707531         117.3537373398      Ag        Ag (1)
   98    63           4.3810771775         119.2151707831      Au        Au (2)
   99    33           4.4582007302         121.3138093435      Ag        Ag (1)
  100   102           4.5331124175         123.3522599880      Bu        Bu (3)
  101    34           4.5908802080         124.9242014833      Ag        Ag (1)
  102   103           4.6637714193         126.9076721812      Bu        Bu (3)
  103    35           4.7104290568         128.1772910431      Ag        Ag (1)
  104   104           4.8091796122         130.8644302661      Bu        Bu (3)
  105    36           5.0458566959         137.3047411339      Ag        Ag (1)
  106   105           5.0568289548         137.6033114783      Bu        Bu (3)
  107   133           5.1329956098         139.6759115277      Bg        Bg (4)
  108   106           5.1476862742         140.0756648314      Bu        Bu (3)
  109    64           5.1737016354         140.7835787971      Au        Au (2)
  110    37           5.4287096949         147.7227008761      Ag        Ag (1)
  111    38           6.2456410293         169.9525326278      Ag        Ag (1)
  112   107           6.2584487197         170.3010476003      Bu        Bu (3)
  113    65           6.5519559882         178.2877864139      Au        Au (2)
  114    66           6.6164753319         180.0434470118      Au        Au (2)
  115    39           6.6385643480         180.6445196996      Ag        Ag (1)
  116   134           6.6574039176         181.1571704505      Bg        Bg (4)
  117   108           6.6680787895         181.4476484827      Bu        Bu (3)
  118   135           6.7505778087         183.6925609246      Bg        Bg (4)
  119   109           6.7757568782         184.3777182382      Bu        Bu (3)
  120    40           6.7765680117         184.3997903037      Ag        Ag (1)
  121    41           7.0580551933         192.0594459221      Ag        Ag (1)
  122    67           7.0779736137         192.6014536983      Au        Au (2)
  123   136           7.0873854709         192.8575633521      Bg        Bg (4)
  124    68           7.0884224286         192.8857804045      Au        Au (2)
  125   137           7.1054733311         193.3497590499      Bg        Bg (4)
  126   110           7.1541773821         194.6750636551      Bu        Bu (3)
  127    42           7.1590916748         194.8087883591      Ag        Ag (1)
  128   111           7.1979135442         195.8651851307      Bu        Bu (3)
  129   138           7.2382999477         196.9641550416      Bg        Bg (4)
  130    69           7.2590849212         197.5297429243      Au        Au (2)
  131   112           7.3160734813         199.0804804823      Bu        Bu (3)
  132    43           7.4004408788         201.3762340828      Ag        Ag (1)
  133    44           7.5148570436         204.4896562083      Ag        Ag (1)
  134   113           7.6815531735         209.0256885103      Bu        Bu (3)
  135   114           7.8385149880         213.2968366250      Bu        Bu (3)
  136    45           7.9331741590         215.8726436200      Ag        Ag (1)
  137    46          12.6378785179         343.8941577123      Ag        Ag (1)
  138   115          12.8847092815         350.6107642562      Bu        Bu (3)


  VSCF finished.

 @CHECKOUT-I, Total execution time (CPU/WALL):        3.96/       3.99 seconds.
--executable xvscf finished with status     0 in        4.02 seconds (walltime).
 --invoking executable--
/apps/eb/cfour/2.1-iompi-2018a-serial/bin/xvtran
 @GETMEM-I,  Allocated   38146 MB of main memory.
  Full UHF integral transformation
  Frozen-core orbitals requested within analytic derivative calculation
  Transformation of IIII integrals :
  2 passes through the AO integral file were required.
     1246094 AO integrals were read.
     1246094 MO integrals (Spin case AAAA) were written to HF2AA.
     1246094 MO integrals (Spin case BBBB) were written to HF2BB.
     2489474 MO integrals (Spin case AABB) were written to HF2AB.
  Transformation of IIJJ integrals :
  2 passes through the AO integral file were required.
     2438161 AO integrals were read.
     2438161 MO integrals (Spin case AAAA) were written to HF2AA.
     2438161 MO integrals (Spin case BBBB) were written to HF2BB.
     4876322 MO integrals (Spin case AABB) were written to HF2AB.
  Transformation of IJIJ integrals :
  2 passes through the AO integral file were required.
     4620815 AO integrals were read.
     4620815 MO integrals (Spin case AAAA) were written to HF2AA.
     4620815 MO integrals (Spin case BBBB) were written to HF2BB.
     9234753 MO integrals (Spin case AABB) were written to HF2AB.
  Transformation of IJKL integrals :
  2 passes through the AO integral file were required.
     3358092 AO integrals were read.
     3358092 MO integrals (Spin case AAAA) were written to HF2AA.
     3358092 MO integrals (Spin case BBBB) were written to HF2BB.
     6716184 MO integrals (Spin case AABB) were written to HF2AB.
  Summary of active molecular orbitals: 
------------------------------------------------------------------------
                         * Spin case alpha *
 
  Index      Eigenvalue    Symmetry    Index      Eigenvalue    Symmetry
------------------------------------------------------------------------
     1       -20.6558555        1        70         6.5009853        2
     2        -1.4216237        1        71         6.5717752        2
     3        -0.7366839        1        72         6.9878272        2
     4        -0.6559039        1        73         7.0746733        2
     5        -0.5899716        2        74         7.2349351        2
     6       -20.6558793        3        75         0.0475615        3
     7        -1.3758470        3        76         0.1209039        3
     8        -0.7095119        3        77         0.1842060        3
     9        -0.6289644        3        78         0.2547223        3
    10        -0.5621822        4        79         0.2966098        3
    11         0.0334877        1        80         0.3620171        3
    12         0.1505656        1        81         0.4410491        3
    13         0.1602050        1        82         0.5913763        3
    14         0.1902219        1        83         0.7615882        3
    15         0.2776093        1        84         0.7844349        3
    16         0.4062179        1        85         0.8584788        3
    17         0.4481210        1        86         0.9722990        3
    18         0.6511150        1        87         1.0206483        3
    19         0.7064057        1        88         1.1219445        3
    20         0.7643950        1        89         1.2397739        3
    21         0.9239133        1        90         1.4038920        3
    22         0.9385118        1        91         1.5774961        3
    23         0.9674335        1        92         1.8869100        3
    24         1.0453548        1        93         2.0082888        3
    25         1.1417532        1        94         2.1694005        3
    26         1.4171952        1        95         2.3516974        3
    27         1.4827730        1        96         2.3757043        3
    28         1.7401883        1        97         2.4455172        3
    29         2.0302301        1        98         2.7167212        3
    30         2.1521771        1        99         2.8524146        3
    31         2.2832566        1       100         2.9704628        3
    32         2.3784777        1       101         3.6319895        3
    33         2.5024032        1       102         4.0389136        3
    34         2.5473766        1       103         4.4564570        3
    35         2.6778616        1       104         4.6434040        3
    36         2.7255836        1       105         4.8074645        3
    37         3.7046183        1       106         5.0097459        3
    38         4.2327192        1       107         5.1271335        3
    39         4.4388588        1       108         6.2308841        3
    40         4.5768805        1       109         6.6167411        3
    41         4.6946046        1       110         6.7449650        3
    42         5.0326886        1       111         7.0718871        3
    43         5.3805742        1       112         7.1503318        3
    44         6.2154647        1       113         7.2298139        3
    45         6.5984006        1       114         7.6538306        3
    46         6.7283069        1       115         7.7911199        3
    47         6.9956591        1       116        12.8509196        3
    48         7.0813684        1       117         0.1976576        4
    49         7.3330488        1       118         0.2662705        4
    50         7.4855000        1       119         0.7079999        4
    51         7.8864194        1       120         0.8428888        4
    52        12.6058133        1       121         0.9415485        4
    53         0.1384798        2       122         1.0087211        4
    54         0.3282119        2       123         1.1646900        4
    55         0.6403696        2       124         1.4644959        4
    56         0.7176749        2       125         2.1404388        4
    57         0.8901032        2       126         2.2677230        4
    58         0.9307704        2       127         2.4156447        4
    59         1.2821260        2       128         2.5609421        4
    60         1.5124188        2       129         2.7792871        4
    61         2.0675028        2       130         3.9386851        4
    62         2.1622523        2       131         4.1076569        4
    63         2.2515296        2       132         4.3078422        4
    64         2.3900622        2       133         5.1261678        4
    65         2.7594323        2       134         6.6071791        4
    66         4.0802780        2       135         6.7043491        4
    67         4.1341826        2       136         7.0112724        4
    68         4.3861842        2       137         7.0792843        4
    69         5.1664324        2       138         7.2141976        4
------------------------------------------------------------------------
------------------------------------------------------------------------
                         * Spin case beta *
 
  Index      Eigenvalue    Symmetry    Index      Eigenvalue    Symmetry
------------------------------------------------------------------------
     1       -20.6141874        1        70         6.6164753        2
     2        -1.2594603        1        71         7.0779736        2
     3        -0.6349305        1        72         7.0884224        2
     4        -0.5418885        2        73         7.2590849        2
     5       -20.6141814        3        74         0.0388975        3
     6        -1.2034658        3        75         0.1027508        3
     7        -0.6419338        3        76         0.1259640        3
     8        -0.5109706        4        77         0.2548898        3
     9         0.0330511        1        78         0.2591263        3
    10         0.0375266        1        79         0.3053086        3
    11         0.1588389        1        80         0.3665397        3
    12         0.1790494        1        81         0.4627870        3
    13         0.1933343        1        82         0.5946613        3
    14         0.2795467        1        83         0.7899805        3
    15         0.4465596        1        84         0.8118121        3
    16         0.4714433        1        85         0.8779180        3
    17         0.6468874        1        86         0.9892515        3
    18         0.7377622        1        87         1.0322168        3
    19         0.7887402        1        88         1.1277502        3
    20         0.9410334        1        89         1.2510465        3
    21         0.9511856        1        90         1.4651501        3
    22         1.0160375        1        91         1.5958262        3
    23         1.0704496        1        92         1.9010456        3
    24         1.1881092        1        93         2.0356504        3
    25         1.4374653        1        94         2.2417316        3
    26         1.5136691        1        95         2.3851423        3
    27         1.7551512        1        96         2.4003081        3
    28         2.0693106        1        97         2.4830483        3
    29         2.1978572        1        98         2.7376966        3
    30         2.3027743        1        99         2.8951070        3
    31         2.4043506        1       100         3.0012472        3
    32         2.5208865        1       101         3.6349225        3
    33         2.5842882        1       102         4.0429762        3
    34         2.6998090        1       103         4.5331124        3
    35         2.7718323        1       104         4.6637714        3
    36         3.7054420        1       105         4.8091796        3
    37         4.3126708        1       106         5.0568290        3
    38         4.4582007        1       107         5.1476863        3
    39         4.5908802        1       108         6.2584487        3
    40         4.7104291        1       109         6.6680788        3
    41         5.0458567        1       110         6.7757569        3
    42         5.4287097        1       111         7.1541774        3
    43         6.2456410        1       112         7.1979135        3
    44         6.6385643        1       113         7.3160735        3
    45         6.7765680        1       114         7.6815532        3
    46         7.0580552        1       115         7.8385150        3
    47         7.1590917        1       116        12.8847093        3
    48         7.4004409        1       117         0.1990918        4
    49         7.5148570        1       118         0.2664883        4
    50         7.9331742        1       119         0.7092235        4
    51        12.6378785        1       120         0.8582362        4
    52         0.1407510        2       121         0.9497107        4
    53         0.3300781        2       122         1.0124346        4
    54         0.6581989        2       123         1.1686390        4
    55         0.7162897        2       124         1.4624330        4
    56         0.8991891        2       125         2.2014617        4
    57         0.9346519        2       126         2.2854705        4
    58         1.2866383        2       127         2.4368107        4
    59         1.5108519        2       128         2.5793164        4
    60         2.1082355        2       129         2.7845116        4
    61         2.1858762        2       130         3.9394131        4
    62         2.2872075        2       131         4.1253982        4
    63         2.4026456        2       132         4.3021848        4
    64         2.7659018        2       133         5.1329956        4
    65         4.0960326        2       134         6.6574039        4
    66         4.1382157        2       135         6.7505778        4
    67         4.3810772        2       136         7.0873855        4
    68         5.1737016        2       137         7.1054733        4
    69         6.5519560        2       138         7.2382999        4
------------------------------------------------------------------------
  -20.6558554928596       -1.42162367250329      -0.736683933358760     
 -0.655903913962590      -0.589971603742323       -20.6558793297734     
  -1.37584701651964      -0.709511934681393      -0.628964448346400     
 -0.562182204092345       3.348766233285129E-002  0.150565625150839     
  0.160205041519289       0.190221926654530       0.277609320963317     
  0.406217921200892       0.448121007382168       0.651115006325168     
  0.706405669706983       0.764394996310517       0.923913254012092     
  0.938511785946624       0.967433507375846        1.04535476224335     
   1.14175317000474        1.41719515656154        1.48277296739250     
   1.74018831861276        2.03023010693543        2.15217711785640     
   2.28325657702460        2.37847765325608        2.50240319461826     
   2.54737655240192        2.67786161360152        2.72558363689269     
   3.70461828967134        4.23271918033494        4.43885877627799     
   4.57688049534894        4.69460464603483        5.03268864789178     
   5.38057417933226        6.21546466000501        6.59840062208737     
   6.72830692738296        6.99565905990958        7.08136839896045     
   7.33304881120694        7.48550004812344        7.88641942833659     
   12.6058132885241       0.138479840186420       0.328211856717990     
  0.640369566251733       0.717674938899941       0.890103186136727     
  0.930770427010123        1.28212601885102        1.51241884512729     
   2.06750282417661        2.16225225979814        2.25152963495339     
   2.39006221395033        2.75943232081877        4.08027796165029     
   4.13418260003870        4.38618423524157        5.16643238894902     
   6.50098528083637        6.57177521668537        6.98782717184128     
   7.07467334502943        7.23493507759179       4.756152405969167E-002
  0.120903858074112       0.184206025874927       0.254722311424376     
  0.296609845979059       0.362017078409072       0.441049109060697     
  0.591376267547150       0.761588201352293       0.784434878027029     
  0.858478835751819       0.972298986275711        1.02064827344500     
   1.12194453664974        1.23977394626870        1.40389201202276     
   1.57749614197259        1.88691004888261        2.00828881120764     
   2.16940047937310        2.35169741678157        2.37570431458027     
   2.44551717098200        2.71672116621845        2.85241456888575     
   2.97046276188586        3.63198951295384        4.03891358756313     
   4.45645697636322        4.64340396504800        4.80746449944242     
   5.00974586697844        5.12713348030442        6.23088408028817     
   6.61674107935198        6.74496503803026        7.07188711422287     
   7.15033184629406        7.22981386345294        7.65383056127366     
   7.79111990063383        12.8509195905905       0.197657593327003     
  0.266270510048434       0.707999904072859       0.842888770261693     
  0.941548474024976        1.00872111144341        1.16469000127418     
   1.46449590183051        2.14043878753572        2.26772295497565     
   2.41564465164132        2.56094205045085        2.77928714631620     
   3.93868507012485        4.10765688943693        4.30784220840653     
   5.12616775542097        6.60717912008670        6.70434910892493     
   7.01127237262118        7.07928432164083        7.21419758707931     
  -20.6141873697531       -1.25946031443418      -0.634930543618000     
 -0.541888527449617       -20.6141813626962       -1.20346577268146     
 -0.641933768385154      -0.510970646060385       3.305113667467455E-002
  3.752662886863602E-002  0.158838899334789       0.179049409510343     
  0.193334269400580       0.279546665354986       0.446559639358371     
  0.471443310967818       0.646887383915683       0.737762230367500     
  0.788740230053585       0.941033378776537       0.951185593261280     
   1.01603749785774        1.07044963742967        1.18810923525727     
   1.43746525288979        1.51366909608162        1.75515117261132     
   2.06931059588931        2.19785723442476        2.30277429200084     
   2.40435061619154        2.52088646544913        2.58428822701103     
   2.69980900624419        2.77183227548802        3.70544202429007     
   4.31267075307152        4.45820073019337        4.59088020799812     
   4.71042905679909        5.04585669591285        5.42870969493234     
   6.24564102932742        6.63856434802329        6.77656801174113     
   7.05805519325670        7.15909167481208        7.40044087882754     
   7.51485704355354        7.93317415901766        12.6378785178679     
  0.140750971599539       0.330078112856575       0.658198882037012     
  0.716289718151097       0.899189098140834       0.934651861741739     
   1.28663832574895        1.51085187173314        2.10823545163605     
   2.18587622310569        2.28720753562116        2.40264558071719     
   2.76590184329152        4.09603258338712        4.13821565347223     
   4.38107717754071        5.17370163536329        6.55195598816697     
   6.61647533185850        7.07797361372854        7.08842242855297     
   7.25908492121505       3.889751595065338E-002  0.102750832580638     
  0.125963978719802       0.254889815070060       0.259126328860689     
  0.305308606467858       0.366539693380660       0.462786992084713     
  0.594661287408453       0.789980508695700       0.811812088883998     
  0.877917973522474       0.989251502170506        1.03221681224882     
   1.12775016474286        1.25104646151715        1.46515011189614     
   1.59582616522728        1.90104562101736        2.03565036672151     
   2.24173155497664        2.38514230028267        2.40030809631931     
   2.48304828439782        2.73769663747709        2.89510698334695     
   3.00124723445961        3.63492253740537        4.04297616833432     
   4.53311241750270        4.66377141932265        4.80917961216595     
   5.05682895483702        5.14768627424490        6.25844871967261     
   6.66807878950707        6.77575687821234        7.15417738206906     
   7.19791354417970        7.31607348130110        7.68155317345379     
   7.83851498799674        12.8847092814904       0.199091811413514     
  0.266488264720170       0.709223494116009       0.858236176367497     
  0.949710744228184        1.01243461235215        1.16863901279477     
   1.46243300981237        2.20146166108478        2.28547051349903     
   2.43681072305172        2.57931637960748        2.78451161255132     
   3.93941314970451        4.12539818864519        4.30218484886707     
   5.13299560976060        6.65740391759916        6.75057780871830     
   7.08738547089526        7.10547333105798        7.23829994771817     
 @CHECKOUT-I, Total execution time (CPU/WALL):        6.52/       8.21 seconds.
--executable xvtran finished with status     0 in        8.24 seconds (walltime).
 --invoking executable--
/apps/eb/cfour/2.1-iompi-2018a-serial/bin/xintprc
 @GETMEM-I,  Allocated   38146 MB of main memory.
  @GMOIAA-I, Processing MO integrals for spin case AA.
  @GMOIAA-I, Generation of integral list completed.
                      TYPE                NUMBER
                      ----               --------
                      PPPP               8618656
                      PPPH               2693760
                      PPHH                212640
                      PHPH                118648
                      PHHH                 18980
                      HHHH                   478

                     TOTAL              11663162
  @GMOIAA-I, Processing MO integrals for spin case BB.
  @GMOIAA-I, Generation of integral list completed.
                      TYPE                NUMBER
                      ----               --------
                      PPPP               9180568
                      PPPH               2253674
                      PPHH                139248
                      PHPH                 79606
                      PHHH                  9864
                      HHHH                   202

                     TOTAL              11663162
  @GMOIAB-I, Processing MO integrals for spin case AB.
                      TYPE                NUMBER
                      ----               --------
                      PPPP              17781592
                      PPPH1H             2781620
                      PPPH2H             2182848
                      PPHH                342880
                      PHPH1P               77024
                      PHPH2P              122689
                      PHHH1P               12240
                      PHHH2P               15266
                      HHHH                   574

                     TOTAL              23316733

  @FORMT2-I, Second-order MP correlation energies:
            ------------------------------------------------
            E(SCF)                  =   -150.821859478415 a.u.
[...]
 ======================================================================
 Norm of residual vector:     0.00076640
 CPU time [min]:  3029.829                   Wall time [min]:   509.190
 
 Iteration 11  CI energy:  -151.28099601  Energy decrease:   0.0000E+00
 ======================================================================
 Norm of residual vector:     0.00063941
 CPU time [min]:  3094.142                   Wall time [min]:   520.338
 
 Iteration 12  CI energy:  -151.28099601  Energy decrease:   0.0000E+00
 ======================================================================
 Norm of residual vector:     0.00057326
 CPU time [min]:  3158.167                   Wall time [min]:   531.210
 
 Iteration 13  CI energy:  -151.28099601  Energy decrease:   0.0000E+00
 ======================================================================
 Norm of residual vector:     0.00054143
 CPU time [min]:  3221.321                   Wall time [min]:   542.095
 
 Iteration 14  CI energy:  -151.28099601  Energy decrease:   0.0000E+00
 ======================================================================
 Norm of residual vector:     0.00050959
 CPU time [min]:  3284.105                   Wall time [min]:   553.253
 
 Iteration 15  CI energy:  -151.28099601  Energy decrease:   0.0000E+00
 ======================================================================
 Norm of residual vector:     0.00045673
 CPU time [min]:  3348.248                   Wall time [min]:   564.215
 
 Iteration 16  CI energy:  -151.28099601  Energy decrease:   0.0000E+00
 ======================================================================
 Norm of residual vector:     0.00036743
 CPU time [min]:  3413.314                   Wall time [min]:   575.307
 
 Iteration 17  CI energy:  -151.28099601  Energy decrease:   0.0000E+00
 ======================================================================
 Norm of residual vector:     0.00023612
 CPU time [min]:  3478.947                   Wall time [min]:   586.514
 
 Iteration 18  CI energy:  -151.28099601  Energy decrease:   0.0000E+00
 ======================================================================
 Norm of residual vector:     0.00013909
 CPU time [min]:  3545.445                   Wall time [min]:   597.846
 
 Iteration 19  CI energy:  -151.28099601  Energy decrease:   0.0000E+00
 ======================================================================
 Norm of residual vector:     0.00007212
 CPU time [min]:  3611.587                   Wall time [min]:   609.316
 
 Iteration 20  CI energy:  -151.28099601  Energy decrease:   0.0000E+00
 ======================================================================
 Norm of residual vector:     0.00003833
 CPU time [min]:  3678.006                   Wall time [min]:   620.745
 
 Iteration 21  CI energy:  -151.28099601  Energy decrease:   0.0000E+00
 ======================================================================
 Norm of residual vector:     0.00001973
 CPU time [min]:  3745.021                   Wall time [min]:   632.292
 
 Iteration 22  CI energy:  -151.28099601  Energy decrease:   0.0000E+00
 ======================================================================
 Norm of residual vector:     0.00000972
 CPU time [min]:  3811.859                   Wall time [min]:   643.793
 
 Iteration 23  CI energy:  -151.28099601  Energy decrease:   0.0000E+00
 ======================================================================
 Norm of residual vector:     0.00000487
 CPU time [min]:  3879.386                   Wall time [min]:   655.470
 
 Iteration 24  CI energy:  -151.28099601  Energy decrease:   0.0000E+00
 ======================================================================
 Norm of residual vector:     0.00000234
 CPU time [min]:  3947.361                   Wall time [min]:   667.390
 
 Iteration 25  CI energy:  -151.28099601  Energy decrease:   0.0000E+00
 ======================================================================
 Norm of residual vector:     0.00000109
 CPU time [min]:  4015.641                   Wall time [min]:   679.338
 
 Iteration 26  CI energy:  -151.28099601  Energy decrease:   0.0000E+00
 ======================================================================
 Norm of residual vector:     0.00000049
 CPU time [min]:  4085.042                   Wall time [min]:   691.889
 
 Iteration 27  CI energy:  -151.28099601  Energy decrease:   0.0000E+00
 ======================================================================
 Norm of residual vector:     0.00000022
 CPU time [min]:  4154.384                   Wall time [min]:   704.486
 
 Iteration 28  CI energy:  -151.28099601  Energy decrease:   0.0000E+00
 ======================================================================
 Norm of residual vector:     0.00000010
 CPU time [min]:  4223.094                   Wall time [min]:   716.749
 
 Iteration 29  CI energy:  -151.28099601  Energy decrease:   0.0000E+00
 ======================================================================
 Norm of residual vector:     0.00000005
 CPU time [min]:  4291.770                   Wall time [min]:   729.042
 
 Iteration 30  CI energy:  -151.28099601  Energy decrease:   0.0000E+00
 ======================================================================
 Norm of residual vector:     0.00000003
 CPU time [min]:  4360.896                   Wall time [min]:   741.400
 
 Iteration 31  CI energy:  -151.28099601  Energy decrease:   0.0000E+00
 ======================================================================
 Norm of residual vector:     0.00000001
 CPU time [min]:  4430.988                   Wall time [min]:   753.818
 
 Iteration 32  CI energy:  -151.28099601  Energy decrease:   0.0000E+00
 ======================================================================
 Norm of residual vector:     0.00000001
 CPU time [min]:  4501.640                   Wall time [min]:   766.388
 
 Iteration 33  CI energy:  -151.28099601  Energy decrease:   0.0000E+00
 ======================================================================
 Norm of residual vector:     3.0949E-09
 CPU time [min]:  4572.590                   Wall time [min]:   779.227
 
 Iteration 34  CI energy:  -151.28099601  Energy decrease:   0.0000E+00
 ======================================================================
 Norm of residual vector:     1.6304E-09
 CPU time [min]:  4643.083                   Wall time [min]:   792.373
 
 Iteration 35  CI energy:  -151.28099601  Energy decrease:   0.0000E+00
 ======================================================================
 Norm of residual vector:     8.5782E-10
 CPU time [min]:  4713.410                   Wall time [min]:   805.406
 
 Iteration 36  CI energy:  -151.28099601  Energy decrease:   0.0000E+00
 ======================================================================
 Norm of residual vector:     4.3554E-10
 CPU time [min]:  4784.986                   Wall time [min]:   818.793
 
 Iteration 37  CI energy:  -151.28099601  Energy decrease:   0.0000E+00
 ======================================================================
 Norm of residual vector:     2.3582E-10
 CPU time [min]:  4857.757                   Wall time [min]:   832.126
 
 Iteration 38  CI energy:  -151.28099601  Energy decrease:   0.0000E+00
 ======================================================================
 Norm of residual vector:     1.3049E-10
 CPU time [min]:  4930.452                   Wall time [min]:   845.641
 
 Iteration 39  CI energy:  -151.28099601  Energy decrease:   0.0000E+00
 ======================================================================
 Norm of residual vector:     6.9715E-11
 CPU time [min]:  5001.844                   Wall time [min]:   858.996
 
 Iteration 40  CI energy:  -151.28099601  Energy decrease:   0.0000E+00
 ======================================================================
 Norm of residual vector:     3.4586E-11
 CPU time [min]:  5072.891                   Wall time [min]:   872.491
 
 Iteration 41  CI energy:  -151.28099601  Energy decrease:   0.0000E+00
 ======================================================================
 Norm of residual vector:     1.6705E-11
 CPU time [min]:  5145.708                   Wall time [min]:   886.103
 
 Iteration 42  CI energy:  -151.28099601  Energy decrease:   0.0000E+00
 ======================================================================
 Norm of residual vector:     8.3006E-12
 CPU time [min]:  5217.259                   Wall time [min]:   899.915
 
 Iteration 43  CI energy:  -151.28099601  Energy decrease:   0.0000E+00
 ======================================================================
 Norm of residual vector:     4.1026E-12
 CPU time [min]:  5292.266                   Wall time [min]:   914.177
 
 Iteration 44  CI energy:  -151.28099601  Energy decrease:   0.0000E+00
 ======================================================================
 Norm of residual vector:     2.0157E-12
 CPU time [min]:  5367.450                   Wall time [min]:   928.558
 
 Iteration 45  CI energy:  -151.28099601  Energy decrease:   0.0000E+00
 ======================================================================
 Norm of residual vector:     9.8100E-13
 CPU time [min]:  5429.570                   Wall time [min]:   938.966
 
 Iteration 46  CI energy:  -151.28099601  Energy decrease:   0.0000E+00
 ======================================================================
 
 Iteration has converged in 46 steps.
 
 Final results:
 Total CCSDT energy [au]:           -151.280996009139
 
 
 
 Calculating reduced density-matrix for root 1...
 
 Total energy from RDM [au]:        -151.280996009139
 
 ************************ 2021-02-07 14:28:19 *************************
                      Normal termination of mrcc.
 **********************************************************************
--executable dmrcc finished with status     0 in    58240.11 seconds (walltime).
 --invoking executable--
/apps/eb/cfour/2.1-iompi-2018a-serial/bin/xdens
 @GETMEM-I,  Allocated   38146 MB of main memory.
  CCSDT density and intermediates are calculated.
  The perturbed orbitals are chosen canonical.
   Frozen core orbitals in analytic derivative calculation
  dropped orbitals                     1                     0
                     1                     0                     0
                     0                     0                     0
 ITERM.tmp does not exsit!
 skip reading
  @S2EXPECT-I, S**2 calculated as expectation value.
  @S2EXPECT-I, Contributions to <S**2> : 
  From one particle density : 
    D(ai)   :   -0.0103798284
    D(ij)   :    0.0895349817
    D(ab)   :    0.1092570330
  From two particle density : 
    G(abcd) :   -0.0626866881
    G(abci) :    0.0010618254
    G(abij) :   -0.0285011201
    G(aibj) :   -0.0611227321
    G(ijka) :    0.0054753307
    G(ijkl) :   -0.0625685995
              Reference state <S**2>        :    2.0199491011.
              Total one particle correction :    0.1884121863.
              Total two particle correction :   -0.2083419837.
              Expectation value of <S**2>   :    2.0000193037.
  The iterative expansion of D(ai) converged after  20 iterations.
  ----------------------------------------------------------------------
                 Natural orbital occupation numbers
  ----------------------------------------------------------------------
                            Alpha spin
  ----------------------------------------------------------------------
  1.00000  1.00000  0.99170  0.99126  0.98436  0.98284  0.98244  0.98119
  0.97695  0.97672  0.01887  0.01731  0.01193  0.00856  0.00841  0.00631
  0.00560  0.00554  0.00415  0.00408  0.00400  0.00391  0.00374  0.00337
  0.00324  0.00322  0.00321  0.00281  0.00085  0.00084  0.00068  0.00061
  0.00058  0.00058  0.00055  0.00049  0.00048  0.00048  0.00046  0.00043
  0.00041  0.00036  0.00035  0.00033  0.00031  0.00031  0.00030  0.00030
  0.00028  0.00028  0.00028  0.00028  0.00027  0.00026  0.00024  0.00023
  0.00022  0.00022  0.00021  0.00012  0.00010  0.00009  0.00009  0.00008
  0.00008  0.00008  0.00007  0.00007  0.00006  0.00006  0.00005  0.00005
  0.00005  0.00004  0.00004  0.00004  0.00004  0.00003  0.00003  0.00003
  0.00003  0.00003  0.00003  0.00003  0.00002  0.00002  0.00002  0.00002
  0.00002  0.00002  0.00002  0.00002  0.00002  0.00002  0.00002  0.00002
  0.00002  0.00002  0.00001  0.00001  0.00001  0.00001  0.00001  0.00001
  0.00001  0.00001  0.00001  0.00001  0.00001  0.00001  0.00000  0.00000
  0.00000  0.00000  0.00000  0.00000  0.00000  0.00000  0.00000  0.00000
  0.00000  0.00000  0.00000  0.00000  0.00000  0.00000  0.00000  0.00000
  0.00000  0.00000  0.00000  0.00000  0.00000  0.00000  0.00000  0.00000
  0.00000  0.00000
  Trace of density matrix :  10.0000000000.
  ----------------------------------------------------------------------
                            Beta spin
  ----------------------------------------------------------------------
  1.00001  1.00001  0.98567  0.98457  0.98017  0.97860  0.97453  0.97432
  0.01853  0.01729  0.01216  0.00991  0.00980  0.00861  0.00544  0.00539
  0.00340  0.00335  0.00330  0.00313  0.00211  0.00204  0.00188  0.00169
  0.00120  0.00110  0.00078  0.00076  0.00065  0.00063  0.00062  0.00057
  0.00048  0.00047  0.00047  0.00037  0.00033  0.00029  0.00028  0.00028
  0.00028  0.00027  0.00026  0.00023  0.00021  0.00020  0.00019  0.00018
  0.00018  0.00018  0.00017  0.00015  0.00015  0.00015  0.00013  0.00011
  0.00011  0.00009  0.00009  0.00008  0.00008  0.00008  0.00008  0.00007
  0.00007  0.00006  0.00006  0.00005  0.00005  0.00005  0.00004  0.00004
  0.00004  0.00004  0.00003  0.00003  0.00003  0.00003  0.00003  0.00003
  0.00002  0.00002  0.00002  0.00002  0.00002  0.00002  0.00002  0.00002
  0.00002  0.00002  0.00001  0.00001  0.00001  0.00001  0.00001  0.00001
  0.00001  0.00001  0.00001  0.00001  0.00001  0.00001  0.00001  0.00001
  0.00001  0.00001  0.00001  0.00001  0.00000  0.00000  0.00000  0.00000
  0.00000  0.00000  0.00000  0.00000  0.00000  0.00000  0.00000  0.00000
  0.00000  0.00000  0.00000  0.00000  0.00000  0.00000  0.00000  0.00000
  0.00000  0.00000  0.00000  0.00000  0.00000  0.00000  0.00000  0.00000
  0.00000  0.00000
  Trace of density matrix :   8.0000000000.
  ----------------------------------------------------------------------
  Density calculation successfully completed.
 @CHECKOUT-I, Total execution time (CPU/WALL):      182.46/     183.74 seconds.
--executable xdens finished with status     0 in      183.79 seconds (walltime).
 --invoking executable--
/apps/eb/cfour/2.1-iompi-2018a-serial/bin/xanti
 @GETMEM-I,  Allocated   38146 MB of main memory.
 CCSDT MO gammas will be sorted to Mulliken order.
 @CHECKOUT-I, Total execution time (CPU/WALL):        4.87/       4.89 seconds.
--executable xanti finished with status     0 in        4.93 seconds (walltime).
 --invoking executable--
/apps/eb/cfour/2.1-iompi-2018a-serial/bin/xbcktrn
 @GETMEM-I,  Allocated   38146 MB of main memory.
 CCSDT MO gammas will be transformed to the AO basis.
 @CHECKOUT-I, Total execution time (CPU/WALL):        1.16/       1.16 seconds.
--executable xbcktrn finished with status     0 in        1.20 seconds (walltime).
 --invoking executable--
/apps/eb/cfour/2.1-iompi-2018a-serial/bin/xvdint
 @GETMEM-I,  Allocated   38146 MB of main memory.
 One- and two-electron integral derivatives are calculated
 for UHF-CC/MBPT gradients and dipole moments.
 Spherical gaussians are used.

                     Kinetic energy integral gradient
                     --------------------------------

                         O #1 x     0.6059544944
                         O #1 y    -0.8419506995
                         H #2 x    -0.6279477687
                         H #2 y     0.8684614907


 O #1 1     0.3029772472           -0.4209753498            0.0000000000
 O #1 2    -0.3029772472            0.4209753498            0.0000000000
 H #2 1    -0.3139738844            0.4342307453            0.0000000000
 H #2 2     0.3139738844           -0.4342307453            0.0000000000



                   Nuclear attraction integral gradient
                   ------------------------------------

                         O #1 x   -20.6991470897
                         O #1 y     8.0104433079
                         H #2 x     4.3736022334
                         H #2 y    -9.9152380056


 O #1 1   -10.3495735449            4.0052216539            0.0000000000
 O #1 2    10.3495735449           -4.0052216539            0.0000000000
 H #2 1     2.1868011167           -4.9576190028            0.0000000000
 H #2 2    -2.1868011167            4.9576190028            0.0000000000



                      Reorthonormalization gradient
                      -----------------------------

                         O #1 x     0.2506700385
                         O #1 y    -0.4155495284
                         H #2 x    -0.2827587208
                         H #2 y     0.4432358187


 O #1 1     0.1253350192           -0.2077747642            0.0000000000
 O #1 2    -0.1253350192            0.2077747642            0.0000000000
 H #2 1    -0.1413793604            0.2216179093            0.0000000000
 H #2 2     0.1413793604           -0.2216179093            0.0000000000



                Electronic contributions to dipole moment
                -----------------------------------------

                     All components zero by symmetry

  Conversion factor used: 1 a.u. =   2.54174691 Debye 


 Evaluation of 1e integral derivatives required    0.13 seconds.
 Evaluation of 2el integral derivatives

                      Two-electron integral gradient
                      ------------------------------

                         O #1 x     9.5370271568
                         O #1 y    -3.6965049989
                         H #2 x    -2.0038350559
                         H #2 y     4.5345635178


 O #1 1     4.7685135784           -1.8482524995            0.0000000000
 O #1 2    -4.7685135784            1.8482524995            0.0000000000
 H #2 1    -1.0019175280            2.2672817589            0.0000000000
 H #2 2     1.0019175280           -2.2672817589            0.0000000000


 Evaluation of 2e integral derivatives required    8.29 seconds.

                            Molecular gradient
                            ------------------

                         O #1 x    -0.0098818849
                         O #1 y     0.0551935564
                         H #2 x     0.0501059737
                         H #2 y    -0.0468966525


 O #1 1    -0.0049409425            0.0275967782            0.0000000000
 O #1 2     0.0049409425           -0.0275967782            0.0000000000
 H #2 1     0.0250529868           -0.0234483263            0.0000000000
 H #2 2    -0.0250529868            0.0234483263            0.0000000000


  Molecular gradient norm 0.886E-01

                           Total dipole moment
                           -------------------

                     All components zero by symmetry

  Conversion factor used: 1 a.u. =   2.54174691 Debye 


 @CHECKOUT-I, Total execution time (CPU/WALL):        8.40/       8.92 seconds.
--executable xvdint finished with status     0 in        8.96 seconds (walltime).
 --invoking executable--
/apps/eb/cfour/2.1-iompi-2018a-serial/bin/xjoda
  igrd and ihes are                      0                    -1
  gradient from JOBARC 
  -0.004940942453506   0.027596778191712   0.000000000000000
   0.004940942453506  -0.027596778191712   0.000000000000000
   0.025052986847952  -0.023448326250220   0.000000000000000
  -0.025052986847952   0.023448326250220   0.000000000000000
 
 @CHECKOUT-I, Total execution time (CPU/WALL):        0.07/       0.08 seconds.
--executable xjoda finished with status     0 in        0.17 seconds (walltime).
  The final electronic energy is      -151.280996009138988 a.u. 
  This computation required                        58536.04 seconds (walltime).
