
    -----------------------------------------------------------------------
          Psi4: An Open-Source Ab Initio Electronic Structure Package
                               Psi4 1.3.2 release

                         Git: Rev {HEAD} ecbda83 


    R. M. Parrish, L. A. Burns, D. G. A. Smith, A. C. Simmonett,
    A. E. DePrince III, E. G. Hohenstein, U. Bozkaya, A. Yu. Sokolov,
    R. Di Remigio, R. M. Richard, J. F. Gonthier, A. M. James,
    H. R. McAlexander, A. Kumar, M. Saitow, X. Wang, B. P. Pritchard,
    P. Verma, H. F. Schaefer III, K. Patkowski, R. A. King, E. F. Valeev,
    F. A. Evangelista, J. M. Turney, T. D. Crawford, and C. D. Sherrill,
    J. Chem. Theory Comput. 13(7) pp 3185--3197 (2017).
    (doi: 10.1021/acs.jctc.7b00174)


                         Additional Contributions by
    P. Kraus, H. Kruse, M. H. Lechner, M. C. Schieber, R. A. Shaw,
    A. Alenaizan, R. Galvelis, Z. L. Glick, S. Lehtola, and J. P. Misiewicz

    -----------------------------------------------------------------------


    Psi4 started on: Wednesday, 10 March 2021 10:57AM

    Process ID: 130482
    Host:       d1-14.compute.lan
    PSIDATADIR: /apps/gb/PSI4/1.3.2/share/psi4
    Memory:     500.0 MiB
    Threads:    12
    
  ==> Input File <==

--------------------------------------------------------------------------
memory 4 GB

molecule  {
0 3
O   -1.504744251557   -0.001191842846    0.000000000000
H   -0.553951593525    0.156621702098    0.000000000000
H   -1.896591262807    0.877849706617    0.000000000000
O    1.659150729609   -0.063989260375    0.000000000000
}
set {
basis aug-cc-pvtz
reference uhf
e_convergence 10
scf_type pk
freeze_core true
}

set ccenergy {
e_convergence 10
r_convergence 10
}

e = energy('ccsd(t)')

print_out('Stephenergy {}'.format(e))

--------------------------------------------------------------------------

  Memory set to   3.725 GiB by Python driver.

*** tstart() called on d1-14.compute.lan
*** at Wed Mar 10 10:57:42 2021

   => Loading Basis Set <=

    Name: AUG-CC-PVTZ
    Role: ORBITAL
    Keyword: BASIS
    atoms 1, 4 entry O          line   327 file /apps/gb/PSI4/1.3.2/share/psi4/basis/aug-cc-pvtz.gbs 
    atoms 2-3  entry H          line    36 file /apps/gb/PSI4/1.3.2/share/psi4/basis/aug-cc-pvtz.gbs 


         ---------------------------------------------------------
                                   SCF
               by Justin Turney, Rob Parrish, Andy Simmonett
                          and Daniel G. A. Smith
                              UHF Reference
                       12 Threads,   3814 MiB Core
         ---------------------------------------------------------

  ==> Geometry <==

    Molecular point group: cs
    Full point group: Cs

    Geometry (in Angstrom), charge = 0, multiplicity = 3:

       Center              X                  Y                   Z               Mass       
    ------------   -----------------  -----------------  -----------------  -----------------
         O           -1.504744251557    -0.001191842846     0.000000000000    15.994914619570
         H           -0.553951593525     0.156621702098     0.000000000000     1.007825032230
         H           -1.896591262807     0.877849706617     0.000000000000     1.007825032230
         O            1.659150729609    -0.063989260375     0.000000000000    15.994914619570

  Running in cs symmetry.

  Rotational constants: A =     23.23529  B =      0.19992  C =      0.19821 [cm^-1]
  Rotational constants: A = 696576.54206  B =   5993.37736  C =   5942.24996 [MHz]
  Nuclear repulsion =   22.894899153840029

  Charge       = 0
  Multiplicity = 3
  Electrons    = 18
  Nalpha       = 10
  Nbeta        = 8

  ==> Algorithm <==

  SCF Algorithm Type is PK.
  DIIS enabled.
  MOM disabled.
  Fractional occupation disabled.
  Guess Type is SAD.
  Energy threshold   = 1.00e-10
  Density threshold  = 1.00e-08
  Integral threshold = 0.00e+00

  ==> Primary Basis <==

  Basis Set: AUG-CC-PVTZ
    Blend: AUG-CC-PVTZ
    Number of shells: 46
    Number of basis function: 138
    Number of Cartesian functions: 160
    Spherical Harmonics?: true
    Max angular momentum: 3

  ==> Pre-Iterations <==

   -------------------------------------------------------
    Irrep   Nso     Nmo     Nalpha   Nbeta   Ndocc  Nsocc
   -------------------------------------------------------
     A'        92      92       0       0       0       0
     A"        46      46       0       0       0       0
   -------------------------------------------------------
    Total     138     138      10       8       8       2
   -------------------------------------------------------

  ==> Integral Setup <==

  Using in-core PK algorithm.
   Calculation information:
      Number of atoms:                   4
      Number of AO shells:              46
      Number of primitives:             82
      Number of atomic orbitals:       160
      Number of basis functions:       138

      Integral cutoff                 1.00e-12
      Number of threads:                12

  Performing in-core PK
  Using 91996872 doubles for integral storage.
  We computed 901785 shell quartets total.
  Whereas there are 584821 unique shell quartets.
    54.20 percent of shell quartets recomputed by reordering.

  ==> DiskJK: Disk-Based J/K Matrices <==

    J tasked:                  Yes
    K tasked:                  Yes
    wK tasked:                  No
    Memory [MiB]:             2861
    Schwarz Cutoff:          1E-12

    OpenMP threads:             12

  Minimum eigenvalue in the overlap matrix is 2.9587937171E-04.
  Using Symmetric Orthogonalization.

  SCF Guess: Superposition of Atomic Densities via on-the-fly atomic UHF.

  ==> Iterations <==

                        Total Energy        Delta E     RMS |[F,P]|

   @UHF iter SAD:  -149.39965009319326   -1.49400e+02   0.00000e+00 
   @UHF iter   1:  -150.76365926083105   -1.36401e+00   5.04828e-03 DIIS
   @UHF iter   2:  -150.83784523050460   -7.41860e-02   3.28113e-03 DIIS
   @UHF iter   3:  -150.87305793084988   -3.52127e-02   3.93378e-04 DIIS
   @UHF iter   4:  -150.87417472851115   -1.11680e-03   1.30864e-04 DIIS
   @UHF iter   5:  -150.87430221581155   -1.27487e-04   5.12483e-05 DIIS
   @UHF iter   6:  -150.87433660411369   -3.43883e-05   1.54525e-05 DIIS
   @UHF iter   7:  -150.87434045914065   -3.85503e-06   5.62481e-06 DIIS
   @UHF iter   8:  -150.87434133925700   -8.80116e-07   4.48587e-06 DIIS
   @UHF iter   9:  -150.87434209294267   -7.53686e-07   4.37002e-06 DIIS
   @UHF iter  10:  -150.87434325505853   -1.16212e-06   4.31121e-06 DIIS
   @UHF iter  11:  -150.87434995138972   -6.69633e-06   4.02363e-06 DIIS
   @UHF iter  12:  -150.87436715769576   -1.72063e-05   3.76961e-06 DIIS
   @UHF iter  13:  -150.87436892963274   -1.77194e-06   3.30172e-06 DIIS
   @UHF iter  14:  -150.87438639529626   -1.74657e-05   8.34895e-06 DIIS
   @UHF iter  15:  -150.87438632713454    6.81617e-08   6.27340e-06 DIIS
   @UHF iter  16:  -150.87438804417198   -1.71704e-06   6.32210e-06 DIIS
   @UHF iter  17:  -150.87438825980553   -2.15634e-07   2.73206e-06 DIIS
   @UHF iter  18:  -150.87438834100593   -8.12004e-08   1.20741e-06 DIIS
   @UHF iter  19:  -150.87438835280952   -1.18036e-08   1.30336e-07 DIIS
   @UHF iter  20:  -150.87438835275807    5.14433e-11   1.69702e-07 DIIS
   @UHF iter  21:  -150.87438835291442   -1.56348e-10   4.79138e-09 DIIS
   @UHF iter  22:  -150.87438835291610   -1.67688e-12   9.75601e-10 DIIS
  Energy and wave function converged.


  ==> Post-Iterations <==

   @Spin Contamination Metric:   9.374591331E-03
   @S^2 Expected:                2.000000000E+00
   @S^2 Observed:                2.009374591E+00
   @S   Expected:                1.000000000E+00
   @S   Observed:                1.000000000E+00

    Orbital Energies [Eh]
    ---------------------

    Alpha Occupied:                                                       

       1Ap   -20.733055     2Ap   -20.558898     3Ap    -1.442382  
       4Ap    -1.342357     5Ap    -0.733151     1App   -0.732778  
       6Ap    -0.709886     7Ap    -0.634421     8Ap    -0.574602  
       2App   -0.501793  

    Alpha Virtual:                                                        

       9Ap     0.034200    10Ap     0.053475    11Ap     0.128200  
       3App    0.132946    12Ap     0.148130    13Ap     0.160735  
      14Ap     0.183921     4App    0.186833    15Ap     0.214112  
      16Ap     0.241931    17Ap     0.264208     5App    0.286443  
      18Ap     0.303964     6App    0.320639    19Ap     0.364154  
      20Ap     0.406228    21Ap     0.460276    22Ap     0.568687  
       7App    0.602624    23Ap     0.608680    24Ap     0.627001  
      25Ap     0.681797     8App    0.709332    26Ap     0.714756  
       9App    0.736699    10App    0.748778    27Ap     0.750642  
      28Ap     0.811436    11App    0.826018    29Ap     0.836832  
      12App    0.890813    30Ap     0.891820    31Ap     0.922838  
      32Ap     0.944961    13App    0.947831    33Ap     0.951195  
      14App    0.971496    34Ap     0.978771    35Ap     1.042913  
      36Ap     1.135915    15App    1.153356    37Ap     1.169705  
      38Ap     1.184921    39Ap     1.260757    16App    1.294871  
      40Ap     1.316271    17App    1.527008    41Ap     1.587780  
      18App    1.597684    42Ap     1.715623    43Ap     1.809146  
      44Ap     1.841765    45Ap     1.977259    19App    1.977741  
      46Ap     1.978063    20App    2.013204    47Ap     2.017951  
      21App    2.048361    48Ap     2.060621    22App    2.122588  
      49Ap     2.152589    50Ap     2.175701    23App    2.212498  
      24App    2.302651    51Ap     2.310794    52Ap     2.338568  
      53Ap     2.414752    25App    2.441002    54Ap     2.458604  
      55Ap     2.490412    26App    2.526262    56Ap     2.628753  
      57Ap     2.708907    27App    2.727690    58Ap     2.736494  
      59Ap     2.859899    60Ap     2.933213    28App    2.942934  
      61Ap     3.694395    62Ap     3.890514    29App    4.034866  
      30App    4.062680    63Ap     4.074240    31App    4.176906  
      64Ap     4.208722    65Ap     4.263109    32App    4.302716  
      33App    4.390615    66Ap     4.408970    34App    4.428748  
      67Ap     4.445163    68Ap     4.601202    69Ap     4.777104  
      70Ap     4.955023    35App    5.153139    71Ap     5.167752  
      72Ap     5.297751    73Ap     5.385956    36App    5.521977  
      74Ap     5.690319    75Ap     6.186438    37App    6.312378  
      76Ap     6.312409    38App    6.375454    77Ap     6.378162  
      39App    6.518079    78Ap     6.519907    79Ap     6.559624  
      80Ap     6.636940    40App    6.735477    81Ap     6.814407  
      41App    6.820016    82Ap     6.918616    42App    6.936777  
      83Ap     6.960975    84Ap     7.050855    43App    7.147374  
      44App    7.271085    45App    7.322903    85Ap     7.325009  
      86Ap     7.362783    46App    7.435158    87Ap     7.644731  
      88Ap     7.944781    89Ap     7.957168    90Ap     8.804309  
      91Ap     9.514043    92Ap    16.269877  

    Beta Occupied:                                                        

       1Ap   -20.654269     2Ap   -20.559028     3Ap    -1.342931  
       4Ap    -1.099914     5Ap    -0.709077     6Ap    -0.579599  
       7Ap    -0.541170     1App   -0.501838  

    Beta Virtual:                                                         

       8Ap     0.034359     2App    0.049378     9Ap     0.049622  
      10Ap     0.055178    11Ap     0.143825    12Ap     0.152973  
       3App    0.161253    13Ap     0.178024    14Ap     0.207804  
      15Ap     0.225516     4App    0.227209    16Ap     0.250634  
      17Ap     0.265459     5App    0.286650    18Ap     0.306104  
       6App    0.324369    19Ap     0.368048    20Ap     0.417093  
      21Ap     0.461549    22Ap     0.572257    23Ap     0.627785  
       7App    0.635020    24Ap     0.640404    25Ap     0.686593  
      26Ap     0.715423     8App    0.721400     9App    0.739821  
      10App    0.750498    27Ap     0.767079    28Ap     0.817833  
      29Ap     0.867755    11App    0.868979    30Ap     0.919897  
      12App    0.941673    31Ap     0.941774    13App    0.949905  
      32Ap     0.952567    33Ap     0.970217    34Ap     1.017457  
      14App    1.020112    35Ap     1.045160    15App    1.156484  
      36Ap     1.163613    37Ap     1.173002    38Ap     1.216180  
      39Ap     1.263993    16App    1.305476    40Ap     1.324908  
      17App    1.527720    41Ap     1.590001    18App    1.599121  
      42Ap     1.741988    43Ap     1.814371    44Ap     1.852563  
      45Ap     1.985498    46Ap     2.015705    19App    2.015716  
      20App    2.053680    47Ap     2.065389    21App    2.170758  
      48Ap     2.176036    22App    2.179603    49Ap     2.193701  
      50Ap     2.244464    23App    2.249701    24App    2.306071  
      51Ap     2.316293    52Ap     2.361303    53Ap     2.419149  
      25App    2.443719    54Ap     2.459444    55Ap     2.496716  
      26App    2.534730    56Ap     2.635942    57Ap     2.726068  
      27App    2.728996    58Ap     2.739721    59Ap     2.861732  
      60Ap     2.937636    28App    2.943564    61Ap     3.695083  
      62Ap     3.892870    29App    4.037725    30App    4.145579  
      63Ap     4.193959    64Ap     4.242924    31App    4.262451  
      65Ap     4.274848    32App    4.302768    33App    4.390684  
      66Ap     4.412474    34App    4.429418    67Ap     4.489579  
      68Ap     4.603786    69Ap     4.778758    70Ap     4.957035  
      35App    5.153125    71Ap     5.168048    72Ap     5.297988  
      73Ap     5.387175    36App    5.522036    74Ap     5.690661  
      75Ap     6.187690    76Ap     6.421231    37App    6.421235  
      38App    6.450652    77Ap     6.453395    78Ap     6.535265  
      39App    6.571949    79Ap     6.600133    80Ap     6.681874  
      40App    6.741406    81Ap     6.920268    41App    7.005134  
      82Ap     7.006686    42App    7.045912    83Ap     7.068143  
      84Ap     7.130635    43App    7.149973    44App    7.271318  
      45App    7.323629    85Ap     7.325323    86Ap     7.363560  
      46App    7.435570    87Ap     7.645586    88Ap     7.945654  
      89Ap     7.957649    90Ap     8.805827    91Ap     9.589085  
      92Ap    16.270147  

    Final Occupation by Irrep:
             Ap   App 
    DOCC [     7,    1 ]
    SOCC [     1,    1 ]

  @UHF Final Energy:  -150.87438835291610

   => Energetics <=

    Nuclear Repulsion Energy =             22.8948991538400293
    One-Electron Energy =                -253.5874244950813932
    Two-Electron Energy =                  79.8181369883252785
    Total Energy =                       -150.8743883529160996

  UHF NO Occupations:
  HONO-2 :    7 Ap 1.9970281
  HONO-1 :    8 Ap 1.0000000
  HONO-0 :    2App 1.0000000
  LUNO+0 :    9 Ap 0.0029719
  LUNO+1 :   10 Ap 0.0017164
  LUNO+2 :   11 Ap 0.0000024
  LUNO+3 :   12 Ap 0.0000017


Computation Completed


Properties will be evaluated at   0.000000,   0.000000,   0.000000 [a0]

Properties computed using the SCF density matrix

  Nuclear Dipole Moment: [e a0]
     X:    -2.2966      Y:     0.9695      Z:     0.0000

  Electronic Dipole Moment: [e a0]
     X:     2.7586      Y:    -0.2943      Z:     0.0000

  Dipole Moment: [e a0]
     X:     0.4621      Y:     0.6752      Z:     0.0000     Total:     0.8182

  Dipole Moment: [D]
     X:     1.1745      Y:     1.7162      Z:     0.0000     Total:     2.0796


*** tstop() called on d1-14.compute.lan at Wed Mar 10 10:57:48 2021
Module time:
	user time   =      57.38 seconds =       0.96 minutes
	system time =       2.83 seconds =       0.05 minutes
	total time  =          6 seconds =       0.10 minutes
Total time:
	user time   =      57.38 seconds =       0.96 minutes
	system time =       2.83 seconds =       0.05 minutes
	total time  =          6 seconds =       0.10 minutes
 MINTS: Wrapper to libmints.
   by Justin Turney

   Calculation information:
      Number of threads:                12
      Number of atoms:                   4
      Number of AO shells:              46
      Number of SO shells:              46
      Number of primitives:             82
      Number of atomic orbitals:       160
      Number of basis functions:       138

      Number of irreps:                  2
      Integral cutoff                 0.00e+00
      Number of functions per irrep: [  92   46 ]

 OEINTS: Overlap, kinetic, potential, dipole, and quadrupole integrals
         stored in file 35.

      Computing two-electron integrals...done
      Computed 22924222 non-zero two-electron integrals.
        Stored in file 33.


*** tstart() called on d1-14.compute.lan
*** at Wed Mar 10 10:57:52 2021


	Wfn Parameters:
	--------------------
	Wavefunction         = CCSD_T
	Number of irreps     = 2
	Number of MOs        = 138
	Number of active MOs = 136
	AO-Basis             = NONE
	Semicanonical        = false
	Reference            = UHF
	Print Level          = 1

	IRREP	# MOs	# FZDC	# DOCC	# SOCC	# VIRT	# FZVR
	-----	-----	------	------	------	------	------
	 Ap	   92	    2	    5	    1	    84	    0
	 App	   46	    0	    1	    1	    44	    0
	Transforming integrals...
	IWL integrals will be deleted.
	(OO|OO)...
	Presorting SO-basis two-electron integrals.
	Sorting File: SO Ints (nn|nn) nbuckets = 1
	Transforming the one-electron integrals and constructing Fock matrices
	Starting AA/AB first half-transformation.
	Sorting AA/AB half-transformed integrals.
	Starting BB first half-transformation.
	Sorting BB half-transformed integrals.
	First half integral transformation complete.
	Starting AA second half-transformation.
	Starting AB second half-transformation.
	Starting BB second half-transformation.
	Two-electron integral transformation complete.
	(OO|OV)...
	Starting AA second half-transformation.
	Starting AB second half-transformation.
	Starting BB second half-transformation.
	Two-electron integral transformation complete.
	(OO|VV)...
	Starting AA second half-transformation.
	Starting AB second half-transformation.
	Starting BB second half-transformation.
	Two-electron integral transformation complete.
	(OV|OO)...
	Starting AA/AB first half-transformation.
	Sorting AA/AB half-transformed integrals.
	Starting BB first half-transformation.
	Sorting BB half-transformed integrals.
	First half integral transformation complete.
	Starting AA second half-transformation.
	Starting AB second half-transformation.
	Starting BB second half-transformation.
	Two-electron integral transformation complete.
	(OV|OV)...
	Starting AA second half-transformation.
	Starting AB second half-transformation.
	Starting BB second half-transformation.
	Two-electron integral transformation complete.
	(OV|VV)...
	Starting AA second half-transformation.
	Starting AB second half-transformation.
	Starting BB second half-transformation.
	Two-electron integral transformation complete.
	(VV|OO)...
	Starting AA/AB first half-transformation.
	Sorting AA/AB half-transformed integrals.
	Starting BB first half-transformation.
	Sorting BB half-transformed integrals.
	First half integral transformation complete.
	Starting AA second half-transformation.
	Starting AB second half-transformation.
	Starting BB second half-transformation.
	Two-electron integral transformation complete.
	(VV|OV)...
	Starting AA second half-transformation.
	Starting AB second half-transformation.
	Starting BB second half-transformation.
	Two-electron integral transformation complete.
	(VV|VV)...
	Starting AA second half-transformation.
	Starting AB second half-transformation.
	Starting BB second half-transformation.
	Two-electron integral transformation complete.
	Frozen core energy     =   -125.85454436766175

	Size of irrep 0 of <AB|CD> integrals:     19.643 (MW) /    157.141 (MB)
	Size of irrep 1 of <AB|CD> integrals:     13.660 (MW) /    109.283 (MB)
	Total:                                    33.303 (MW) /    266.424 (MB)

	Size of irrep 0 of <ab|cd> integrals:     20.794 (MW) /    166.349 (MB)
	Size of irrep 1 of <ab|cd> integrals:     14.631 (MW) /    117.045 (MB)
	Total:                                    35.424 (MW) /    283.394 (MB)

	Size of irrep 0 of <Ab|Cd> integrals:     83.174 (MW) /    665.395 (MB)
	Size of irrep 1 of <Ab|Cd> integrals:     56.550 (MW) /    452.403 (MB)
	Total:                                   139.725 (MW) /   1117.798 (MB)

	Size of irrep 0 of <IA|BC> integrals:      5.323 (MW) /     42.586 (MB)
	Size of irrep 1 of <IA|BC> integrals:      3.193 (MW) /     25.547 (MB)
	Total:                                     8.517 (MW) /     68.133 (MB)

	Size of irrep 0 of <ia|bc> integrals:      4.348 (MW) /     34.780 (MB)
	Size of irrep 1 of <ia|bc> integrals:      2.372 (MW) /     18.972 (MB)
	Total:                                     6.719 (MW) /     53.752 (MB)

	Size of irrep 0 of <Ia|Bc> integrals:      5.472 (MW) /     43.776 (MB)
	Size of irrep 1 of <Ia|Bc> integrals:      3.309 (MW) /     26.470 (MB)
	Total:                                     8.781 (MW) /     70.246 (MB)

	Size of irrep 0 of <iA|bC> integrals:      4.232 (MW) /     33.853 (MB)
	Size of irrep 1 of <iA|bC> integrals:      2.286 (MW) /     18.289 (MB)
	Total:                                     6.518 (MW) /     52.142 (MB)

	Size of irrep 0 of tIjAb amplitudes:       0.292 (MW) /      2.335 (MB)
	Size of irrep 1 of tIjAb amplitudes:       0.120 (MW) /      0.963 (MB)
	Total:                                     0.412 (MW) /      3.297 (MB)

	Nuclear Rep. energy          =     22.89489915384003
	SCF energy                   =   -150.87438835291610
	One-electron energy          =    -84.38358579766913
	Two-electron (AA) energy     =     10.13482057728481
	Two-electron (BB) energy     =      5.39091215105234
	Two-electron (AB) energy     =     20.94310993023644
	Two-electron energy          =     36.46884265857359
	Reference energy             =   -150.87438835291726

*** tstop() called on d1-14.compute.lan at Wed Mar 10 10:58:40 2021
Module time:
	user time   =     258.08 seconds =       4.30 minutes
	system time =      37.85 seconds =       0.63 minutes
	total time  =         48 seconds =       0.80 minutes
Total time:
	user time   =     322.47 seconds =       5.37 minutes
	system time =      41.60 seconds =       0.69 minutes
	total time  =         58 seconds =       0.97 minutes
            **************************
            *                        *
            *        CCENERGY        *
            *                        *
            **************************

    Nuclear Rep. energy (wfn)     =   22.894899153840029
    SCF energy          (wfn)     = -150.874388352916100
    Reference energy    (file100) = -150.874388352917265

    Input parameters:
    -----------------
    Wave function   =     CCSD_T
    Reference wfn   =     UHF
    Brueckner       =     No
    Memory (Mbytes) =     4000.0
    Maxiter         =     50
    R_Convergence   =     1.0e-10
    E_Convergence   =     1.0e-10
    Restart         =     Yes
    DIIS            =     Yes
    AO Basis        =     NONE
    ABCD            =     NEW
    Cache Level     =     2
    Cache Type      =     LRU
    Print Level     =     1
    Num. of threads =     12
    # Amps to Print =     10
    Print MP2 Amps? =     No
    Analyze T2 Amps =     No
    Print Pair Ener =     No
    Local CC        =     No
    SCS-MP2         =     False
    SCSN-MP2        =     False
    SCS-CCSD        =     False

MP2 correlation energy -0.4166943283352645
                Solving CC Amplitude Equations
                ------------------------------
  Iter             Energy              RMS        T1Diag      D1Diag    New D1Diag    D2Diag
  ----     ---------------------    ---------   ----------  ----------  ----------   --------
     0        -0.416694328335264    0.000e+00    0.000000    0.000000    0.000000    0.000000
     1        -0.427388620381124    5.695e-02    0.010566    0.000000    0.000000    0.000000
     2        -0.435487427663272    1.692e-02    0.011043    0.000000    0.000000    0.000000
     3        -0.437613986849109    8.589e-03    0.012918    0.000000    0.000000    0.000000
     4        -0.437488109107355    2.537e-03    0.013285    0.000000    0.000000    0.000000
     5        -0.437473619010021    1.322e-03    0.013442    0.000000    0.000000    0.000000
     6        -0.437500839392348    5.154e-04    0.013464    0.000000    0.000000    0.000000
     7        -0.437505473032380    2.651e-04    0.013459    0.000000    0.000000    0.000000
     8        -0.437506078857720    9.972e-05    0.013454    0.000000    0.000000    0.000000
     9        -0.437507455872258    7.440e-05    0.013455    0.000000    0.000000    0.000000
    10        -0.437505892831645    6.425e-05    0.013456    0.000000    0.000000    0.000000
    11        -0.437506039702577    6.139e-05    0.013458    0.000000    0.000000    0.000000
    12        -0.437505750765432    5.970e-05    0.013460    0.000000    0.000000    0.000000
    13        -0.437505743529404    5.855e-05    0.013463    0.000000    0.000000    0.000000
    14        -0.437506919764686    5.667e-05    0.013481    0.000000    0.000000    0.000000
    15        -0.437507297909686    5.015e-05    0.013554    0.000000    0.000000    0.000000
    16        -0.437507074547633    3.355e-05    0.013694    0.000000    0.000000    0.000000
    17        -0.437506728893885    1.620e-05    0.013763    0.000000    0.000000    0.000000
    18        -0.437506598495777    7.601e-06    0.013780    0.000000    0.000000    0.000000
    19        -0.437506858127326    3.359e-06    0.013785    0.000000    0.000000    0.000000
    20        -0.437506969927446    1.505e-06    0.013786    0.000000    0.000000    0.000000
    21        -0.437506977873831    5.923e-07    0.013786    0.000000    0.000000    0.000000
    22        -0.437506979202036    2.808e-07    0.013786    0.000000    0.000000    0.000000
    23        -0.437506978115997    1.457e-07    0.013786    0.000000    0.000000    0.000000
    24        -0.437506977446747    6.048e-08    0.013786    0.000000    0.000000    0.000000
    25        -0.437506978413012    3.301e-08    0.013786    0.000000    0.000000    0.000000
    26        -0.437506978870974    2.559e-08    0.013786    0.000000    0.000000    0.000000
    27        -0.437506979028736    2.396e-08    0.013786    0.000000    0.000000    0.000000
    28        -0.437506978977150    2.321e-08    0.013786    0.000000    0.000000    0.000000
    29        -0.437506978813610    2.254e-08    0.013786    0.000000    0.000000    0.000000
    30        -0.437506978547485    2.145e-08    0.013786    0.000000    0.000000    0.000000
    31        -0.437506978744672    1.816e-08    0.013786    0.000000    0.000000    0.000000
    32        -0.437506979088493    9.534e-09    0.013786    0.000000    0.000000    0.000000
    33        -0.437506979190499    4.168e-09    0.013786    0.000000    0.000000    0.000000
    34        -0.437506979242708    1.705e-09    0.013786    0.000000    0.000000    0.000000
    35        -0.437506979249545    6.717e-10    0.013786    0.000000    0.000000    0.000000
    36        -0.437506979249270    2.875e-10    0.013786    0.000000    0.000000    0.000000
    37        -0.437506979247092    1.223e-10    0.013786    0.000000    0.000000    0.000000
    38        -0.437506979248546    5.813e-11    0.013786    0.000000    0.000000    0.000000

    Iterations converged.


    Largest TIA Amplitudes:
              7  87        -0.0122038845
              7  84        -0.0116462191
              7  85        -0.0094944584
              4   3         0.0090183994
              6  84        -0.0080673354
              5   9        -0.0076708469
              4  10         0.0070329654
              5   2        -0.0069955701
              2   2         0.0068926558
              7  86        -0.0062962320

    Largest Tia Amplitudes:
              5  86        -0.0123455787
              5  89        -0.0117866443
              5  85        -0.0098662818
              4   1        -0.0097793072
              3   3         0.0089932981
              3  10        -0.0070735619
              5  88        -0.0064873395
              5  87        -0.0060401869
              3  11         0.0058405404
              4   7        -0.0057195406

    Largest TIJAB Amplitudes:
      6   2  92  20        -0.0108481149
      6   2 101  38        -0.0097537582
      6   4  92  29        -0.0096481033
      6   2  92  21        -0.0088785826
      4   2  29  20        -0.0083499504
      4   2  41  40         0.0082933649
      6   2 102  38         0.0076335134
      4   2  29  21        -0.0074306528
      6   2 111  54        -0.0073262679
      6   2  88  38         0.0072589861

    Largest Tijab Amplitudes:
      4   1  42   1         0.0070292713
      4   1  91  85        -0.0067956881
      4   1  19   1         0.0064021795
      4   1 106  85        -0.0063047981
      5   2  94  13         0.0062601498
      5   2  89  13         0.0058997907
      5   2 100  17         0.0057920069
      5   2  92  17        -0.0057750506
      5   2  86  13         0.0057440902
      3   2  18  15        -0.0054245982

    Largest TIjAb Amplitudes:
      3   2  12  13         0.0183457526
      2   1  38   1        -0.0169888625
      6   1  38  85        -0.0165208842
      4   4  29  30         0.0163640043
      4   1 103  85        -0.0151354487
      2   1 101  85         0.0146319256
      2   1  88  85        -0.0143901209
      4   1  41   1        -0.0143826959
      6   1 101   1        -0.0143528559
      6   1  88   1         0.0141343458

    SCF energy       (wfn)                    = -150.874388352916100
    Reference energy (file100)                = -150.874388352917265

    Opposite-spin MP2 correlation energy      =   -0.314697997586633
    Same-spin MP2 correlation energy          =   -0.101996330748632
    MP2 correlation energy                    =   -0.416694328335264
      * MP2 total energy                      = -151.291082681252533

    Opposite-spin CCSD correlation energy     =   -0.342246731495543
    Same-spin CCSD correlation energy         =   -0.095260247753004
    CCSD correlation energy                   =   -0.437506979248546
      * CCSD total energy                     = -151.311895332165818

            **************************
            *                        *
            *        CCTRIPLES       *
            *                        *
            **************************


    Wave function   =    CCSD_T
    Reference wfn   =      UHF

    Nuclear Rep. energy (wfn)                =   22.894899153840029
    SCF energy          (wfn)                = -150.874388352916100
    Reference energy    (file100)            = -150.874388352917265
    CCSD energy         (file100)            =   -0.437506979248546
    Total CCSD energy   (file100)            = -151.311895332165818

    Number of ijk index combinations:
    Spin Case AAA:                                  56
    Spin Case BBB:                                  20
    Spin Case AAB:                                 168
    Spin Case ABB:                                 120
    AAA (T) energy                             =   -0.000399628362181
    BBB (T) energy                             =   -0.000202754069067
    AAB (T) energy                             =   -0.006748584786269
    ABB (T) energy                             =   -0.005014924286817
    (T) energy                                   =   -0.012365891504335
      * CCSD(T) total energy                     = -151.324261223670135

Stephenergy -151.32426122367013
    Psi4 stopped on: Wednesday, 10 March 2021 11:02AM
    Psi4 wall time for execution: 0:04:21.57

*** Psi4 exiting successfully. Buy a developer a beer!
