
    -----------------------------------------------------------------------
          Psi4: An Open-Source Ab Initio Electronic Structure Package
                               Psi4 1.3.2 release

                         Git: Rev {HEAD} ecbda83 


    R. M. Parrish, L. A. Burns, D. G. A. Smith, A. C. Simmonett,
    A. E. DePrince III, E. G. Hohenstein, U. Bozkaya, A. Yu. Sokolov,
    R. Di Remigio, R. M. Richard, J. F. Gonthier, A. M. James,
    H. R. McAlexander, A. Kumar, M. Saitow, X. Wang, B. P. Pritchard,
    P. Verma, H. F. Schaefer III, K. Patkowski, R. A. King, E. F. Valeev,
    F. A. Evangelista, J. M. Turney, T. D. Crawford, and C. D. Sherrill,
    J. Chem. Theory Comput. 13(7) pp 3185--3197 (2017).
    (doi: 10.1021/acs.jctc.7b00174)


                         Additional Contributions by
    P. Kraus, H. Kruse, M. H. Lechner, M. C. Schieber, R. A. Shaw,
    A. Alenaizan, R. Galvelis, Z. L. Glick, S. Lehtola, and J. P. Misiewicz

    -----------------------------------------------------------------------


    Psi4 started on: Wednesday, 10 March 2021 10:55AM

    Process ID: 46096
    Host:       d3-17.compute.lan
    PSIDATADIR: /apps/gb/PSI4/1.3.2/share/psi4
    Memory:     500.0 MiB
    Threads:    12
    
  ==> Input File <==

--------------------------------------------------------------------------
memory 4 GB

molecule  {
0 3
O    0.000000000000    0.000266073240    1.270171670022
H    0.000000000000   -0.761080083857    1.857376408216
H   -0.000000000000    0.758579354543    1.861725080229
O    0.000000000000   -0.000108504558   -1.504508874478
}
set {
basis aug-cc-pvtz
reference uhf
e_convergence 10
scf_type pk
freeze_core true
}

set ccenergy {
e_convergence 10
r_convergence 10
}

e = energy('ccsd(t)')

print_out('Stephenergy {}'.format(e))

--------------------------------------------------------------------------

  Memory set to   3.725 GiB by Python driver.

*** tstart() called on d3-17.compute.lan
*** at Wed Mar 10 10:55:57 2021

   => Loading Basis Set <=

    Name: AUG-CC-PVTZ
    Role: ORBITAL
    Keyword: BASIS
    atoms 1, 4 entry O          line   327 file /apps/gb/PSI4/1.3.2/share/psi4/basis/aug-cc-pvtz.gbs 
    atoms 2-3  entry H          line    36 file /apps/gb/PSI4/1.3.2/share/psi4/basis/aug-cc-pvtz.gbs 


         ---------------------------------------------------------
                                   SCF
               by Justin Turney, Rob Parrish, Andy Simmonett
                          and Daniel G. A. Smith
                              UHF Reference
                       12 Threads,   3814 MiB Core
         ---------------------------------------------------------

  ==> Geometry <==

    Molecular point group: cs
    Full point group: Cs

    Geometry (in Angstrom), charge = 0, multiplicity = 3:

       Center              X                  Y                   Z               Mass       
    ------------   -----------------  -----------------  -----------------  -----------------
         O           -0.000266073240    -1.270171670022     0.000000000000    15.994914619570
         H            0.761080083857    -1.857376408216     0.000000000000     1.007825032230
         H           -0.758579354543    -1.861725080229     0.000000000000     1.007825032230
         O            0.000108504558     1.504508874478     0.000000000000    15.994914619570

  Running in cs symmetry.

  Rotational constants: A =     14.48596  B =      0.24438  C =      0.24033 [cm^-1]
  Rotational constants: A = 434278.25646  B =   7326.41481  C =   7204.86638 [MHz]
  Nuclear repulsion =   23.813828308458159

  Charge       = 0
  Multiplicity = 3
  Electrons    = 18
  Nalpha       = 10
  Nbeta        = 8

  ==> Algorithm <==

  SCF Algorithm Type is PK.
  DIIS enabled.
  MOM disabled.
  Fractional occupation disabled.
  Guess Type is SAD.
  Energy threshold   = 1.00e-10
  Density threshold  = 1.00e-08
  Integral threshold = 0.00e+00

  ==> Primary Basis <==

  Basis Set: AUG-CC-PVTZ
    Blend: AUG-CC-PVTZ
    Number of shells: 46
    Number of basis function: 138
    Number of Cartesian functions: 160
    Spherical Harmonics?: true
    Max angular momentum: 3

  ==> Pre-Iterations <==

   -------------------------------------------------------
    Irrep   Nso     Nmo     Nalpha   Nbeta   Ndocc  Nsocc
   -------------------------------------------------------
     A'        92      92       0       0       0       0
     A"        46      46       0       0       0       0
   -------------------------------------------------------
    Total     138     138      10       8       8       2
   -------------------------------------------------------

  ==> Integral Setup <==

  Using in-core PK algorithm.
   Calculation information:
      Number of atoms:                   4
      Number of AO shells:              46
      Number of primitives:             82
      Number of atomic orbitals:       160
      Number of basis functions:       138

      Integral cutoff                 1.00e-12
      Number of threads:                12

  Performing in-core PK
  Using 91996872 doubles for integral storage.
  We computed 908176 shell quartets total.
  Whereas there are 584821 unique shell quartets.
    55.29 percent of shell quartets recomputed by reordering.

  ==> DiskJK: Disk-Based J/K Matrices <==

    J tasked:                  Yes
    K tasked:                  Yes
    wK tasked:                  No
    Memory [MiB]:             2861
    Schwarz Cutoff:          1E-12

    OpenMP threads:             12

  Minimum eigenvalue in the overlap matrix is 3.2360993898E-04.
  Using Symmetric Orthogonalization.

  SCF Guess: Superposition of Atomic Densities via on-the-fly atomic UHF.

  ==> Iterations <==

                        Total Energy        Delta E     RMS |[F,P]|

   @UHF iter SAD:  -149.38139276134888   -1.49381e+02   0.00000e+00 
   @UHF iter   1:  -150.76989209260995   -1.38850e+00   4.82471e-03 DIIS
   @UHF iter   2:  -150.84064975166086   -7.07577e-02   3.06764e-03 DIIS
   @UHF iter   3:  -150.87197917138585   -3.13294e-02   4.02590e-04 DIIS
   @UHF iter   4:  -150.87335347561580   -1.37430e-03   1.23260e-04 DIIS
   @UHF iter   5:  -150.87348760785324   -1.34132e-04   5.03008e-05 DIIS
   @UHF iter   6:  -150.87352073958002   -3.31317e-05   1.50276e-05 DIIS
   @UHF iter   7:  -150.87352384376342   -3.10418e-06   3.86264e-06 DIIS
   @UHF iter   8:  -150.87352406864341   -2.24880e-07   1.07521e-06 DIIS
   @UHF iter   9:  -150.87352408562663   -1.69832e-08   2.67752e-07 DIIS
   @UHF iter  10:  -150.87352408675017   -1.12354e-09   1.29849e-07 DIIS
   @UHF iter  11:  -150.87352408711584   -3.65674e-10   5.34837e-08 DIIS
   @UHF iter  12:  -150.87352408718908   -7.32427e-11   2.14532e-08 DIIS
   @UHF iter  13:  -150.87352408720358   -1.44951e-11   1.86473e-08 DIIS
   @UHF iter  14:  -150.87352408721756   -1.39835e-11   1.81626e-08 DIIS
   @UHF iter  15:  -150.87352408724652   -2.89617e-11   1.76746e-08 DIIS
   @UHF iter  16:  -150.87352408740225   -1.55723e-10   1.50317e-08 DIIS
   @UHF iter  17:  -150.87352408772711   -3.24860e-10   5.99026e-09 DIIS
   @UHF iter  18:  -150.87352408775945   -3.23439e-11   2.17485e-09 DIIS
  Energy and wave function converged.


  ==> Post-Iterations <==

   @Spin Contamination Metric:   9.530496638E-03
   @S^2 Expected:                2.000000000E+00
   @S^2 Observed:                2.009530497E+00
   @S   Expected:                1.000000000E+00
   @S   Observed:                1.000000000E+00

    Orbital Energies [Eh]
    ---------------------

    Alpha Occupied:                                                       

       1Ap   -20.684529     2Ap   -20.571199     3Ap    -1.393949  
       4Ap    -1.355273     5Ap    -0.718712     6Ap    -0.688198  
       1App   -0.685251     7Ap    -0.586446     8Ap    -0.586260  
       2App   -0.513967  

    Alpha Virtual:                                                        

       9Ap     0.029553    10Ap     0.047672    11Ap     0.118599  
       3App    0.154051    12Ap     0.159470    13Ap     0.180289  
      14Ap     0.186920     4App    0.192748    15Ap     0.198009  
       5App    0.263712    16Ap     0.264043    17Ap     0.264766  
      18Ap     0.314356     6App    0.326714    19Ap     0.376040  
      20Ap     0.380349    21Ap     0.449979    22Ap     0.464332  
      23Ap     0.599990     7App    0.643616    24Ap     0.647420  
       8App    0.658158    25Ap     0.666512    26Ap     0.696151  
       9App    0.721700    27Ap     0.722497    10App    0.767507  
      28Ap     0.792753    29Ap     0.818542    11App    0.837800  
      30Ap     0.861026    12App    0.901226    31Ap     0.918620  
      13App    0.924714    32Ap     0.946260    33Ap     0.979677  
      34Ap     0.989723    14App    1.012605    35Ap     1.046342  
      36Ap     1.051367    15App    1.121924    16App    1.176715  
      37Ap     1.191601    38Ap     1.198756    39Ap     1.326800  
      40Ap     1.336512    41Ap     1.443296    17App    1.507248  
      18App    1.594010    42Ap     1.666484    43Ap     1.812434  
      44Ap     1.822049    45Ap     1.976756    46Ap     2.040756  
      19App    2.047758    47Ap     2.054050    20App    2.056758  
      21App    2.058910    48Ap     2.079168    49Ap     2.114901  
      22App    2.118691    50Ap     2.135179    51Ap     2.140238  
      23App    2.145198    52Ap     2.252109    53Ap     2.267145  
      24App    2.303358    25App    2.311825    26App    2.434022  
      54Ap     2.470076    55Ap     2.482240    56Ap     2.486249  
      57Ap     2.695601    27App    2.715928    58Ap     2.720832  
      59Ap     2.839915    60Ap     2.862098    28App    2.880091  
      61Ap     3.690613    62Ap     3.753157    29App    4.013183  
      30App    4.079380    31App    4.099244    63Ap     4.139922  
      64Ap     4.183226    65Ap     4.281019    32App    4.289273  
      66Ap     4.350912    33App    4.381626    67Ap     4.427337  
      34App    4.450993    68Ap     4.515215    69Ap     4.788487  
      70Ap     4.839431    71Ap     5.141307    35App    5.144028  
      72Ap     5.247815    73Ap     5.339484    36App    5.515814  
      74Ap     5.683776    75Ap     6.198382    37App    6.388924  
      76Ap     6.408844    38App    6.410138    77Ap     6.423576  
      39App    6.435490    78Ap     6.485540    79Ap     6.535694  
      80Ap     6.581821    40App    6.716099    41App    6.902275  
      81Ap     6.905556    42App    6.924506    82Ap     6.939614  
      83Ap     6.985624    84Ap     7.046577    43App    7.134788  
      44App    7.277986    45App    7.305832    85Ap     7.308481  
      46App    7.352278    86Ap     7.437875    87Ap     7.542038  
      88Ap     7.908598    89Ap     7.915290    90Ap     8.804282  
      91Ap     8.860241    92Ap    15.769401  

    Beta Occupied:                                                        

       1Ap   -20.605663     2Ap   -20.570738     3Ap    -1.354587  
       4Ap    -1.051143     5Ap    -0.718383     6Ap    -0.588174  
       1App   -0.513308     7Ap    -0.495680  

    Beta Virtual:                                                         

       8Ap     0.029392     9Ap     0.047752     2App    0.086504  
      10Ap     0.091923    11Ap     0.140939    12Ap     0.167039  
       3App    0.170625    13Ap     0.180919    14Ap     0.190508  
      15Ap     0.225534     4App    0.253278     5App    0.263714  
      16Ap     0.264491    17Ap     0.288395    18Ap     0.316747  
       6App    0.328017    19Ap     0.380522    20Ap     0.386386  
      21Ap     0.451064    22Ap     0.464527    23Ap     0.601607  
      24Ap     0.660468     7App    0.667436     8App    0.672580  
      25Ap     0.673622    26Ap     0.713389     9App    0.722165  
      27Ap     0.734709    10App    0.778774    28Ap     0.806053  
      11App    0.846935    29Ap     0.850668    12App    0.925101  
      30Ap     0.928060    31Ap     0.936368    32Ap     0.953319  
      33Ap     0.983418    13App    0.986618    34Ap     0.996885  
      35Ap     1.052408    36Ap     1.052566    14App    1.060418  
      15App    1.137951    16App    1.176912    37Ap     1.193095  
      38Ap     1.201479    39Ap     1.329210    40Ap     1.393133  
      41Ap     1.482672    17App    1.507666    18App    1.595979  
      42Ap     1.696641    43Ap     1.817454    44Ap     1.822385  
      45Ap     1.978146    46Ap     2.070276    19App    2.070814  
      47Ap     2.071476    20App    2.081397    48Ap     2.099456  
      21App    2.100299    49Ap     2.155515    50Ap     2.180878  
      22App    2.201912    51Ap     2.207662    23App    2.258253  
      52Ap     2.308889    24App    2.311955    53Ap     2.318952  
      25App    2.319204    26App    2.441854    54Ap     2.483143  
      55Ap     2.485137    56Ap     2.514767    57Ap     2.702980  
      27App    2.717628    58Ap     2.721734    59Ap     2.852020  
      60Ap     2.862296    28App    2.880125    61Ap     3.691482  
      62Ap     3.753291    29App    4.013211    30App    4.081702  
      63Ap     4.172075    64Ap     4.218710    31App    4.259603  
      65Ap     4.292017    32App    4.294009    33App    4.381731  
      66Ap     4.426203    34App    4.456129    67Ap     4.467708  
      68Ap     4.515294    69Ap     4.799266    70Ap     4.839586  
      71Ap     5.141486    35App    5.144102    72Ap     5.248221  
      73Ap     5.340131    36App    5.515925    74Ap     5.688278  
      75Ap     6.200033    37App    6.485596    38App    6.486968  
      76Ap     6.487752    77Ap     6.493068    39App    6.499205  
      78Ap     6.521139    79Ap     6.607343    80Ap     6.609765  
      40App    6.722956    81Ap     6.955023    41App    7.038058  
      82Ap     7.041919    42App    7.084834    83Ap     7.097485  
      43App    7.135189    84Ap     7.173945    44App    7.282123  
      45App    7.306098    85Ap     7.308666    46App    7.352689  
      86Ap     7.440633    87Ap     7.543111    88Ap     7.909158  
      89Ap     7.915638    90Ap     8.804655    91Ap     8.939661  
      92Ap    15.769717  

    Final Occupation by Irrep:
             Ap   App 
    DOCC [     7,    1 ]
    SOCC [     1,    1 ]

  @UHF Final Energy:  -150.87352408775945

   => Energetics <=

    Nuclear Repulsion Energy =             23.8138283084581595
    One-Electron Energy =                -255.6932466866387585
    Two-Electron Energy =                  81.0058942904211250
    Total Energy =                       -150.8735240877594492

  UHF NO Occupations:
  HONO-2 :    7 Ap 1.9970493
  HONO-1 :    2App 1.0000000
  HONO-0 :    8 Ap 1.0000000
  LUNO+0 :    9 Ap 0.0029507
  LUNO+1 :   10 Ap 0.0017949
  LUNO+2 :   11 Ap 0.0000216
  LUNO+3 :   12 Ap 0.0000024


Computation Completed


Properties will be evaluated at   0.000000,   0.000000,   0.000000 [a0]

Properties computed using the SCF density matrix

  Nuclear Dipole Moment: [e a0]
     X:     0.0023      Y:    -3.4854      Z:     0.0000

  Electronic Dipole Moment: [e a0]
     X:    -0.0003      Y:     2.6490      Z:     0.0000

  Dipole Moment: [e a0]
     X:     0.0020      Y:    -0.8364      Z:     0.0000     Total:     0.8364

  Dipole Moment: [D]
     X:     0.0051      Y:    -2.1259      Z:     0.0000     Total:     2.1259


*** tstop() called on d3-17.compute.lan at Wed Mar 10 10:56:03 2021
Module time:
	user time   =      46.99 seconds =       0.78 minutes
	system time =       2.41 seconds =       0.04 minutes
	total time  =          6 seconds =       0.10 minutes
Total time:
	user time   =      46.99 seconds =       0.78 minutes
	system time =       2.41 seconds =       0.04 minutes
	total time  =          6 seconds =       0.10 minutes
 MINTS: Wrapper to libmints.
   by Justin Turney

   Calculation information:
      Number of threads:                12
      Number of atoms:                   4
      Number of AO shells:              46
      Number of SO shells:              46
      Number of primitives:             82
      Number of atomic orbitals:       160
      Number of basis functions:       138

      Number of irreps:                  2
      Integral cutoff                 0.00e+00
      Number of functions per irrep: [  92   46 ]

 OEINTS: Overlap, kinetic, potential, dipole, and quadrupole integrals
         stored in file 35.

      Computing two-electron integrals...done
      Computed 22915917 non-zero two-electron integrals.
        Stored in file 33.


*** tstart() called on d3-17.compute.lan
*** at Wed Mar 10 10:56:07 2021


	Wfn Parameters:
	--------------------
	Wavefunction         = CCSD_T
	Number of irreps     = 2
	Number of MOs        = 138
	Number of active MOs = 136
	AO-Basis             = NONE
	Semicanonical        = false
	Reference            = UHF
	Print Level          = 1

	IRREP	# MOs	# FZDC	# DOCC	# SOCC	# VIRT	# FZVR
	-----	-----	------	------	------	------	------
	 Ap	   92	    2	    5	    1	    84	    0
	 App	   46	    0	    1	    1	    44	    0
	Transforming integrals...
	IWL integrals will be deleted.
	(OO|OO)...
	Presorting SO-basis two-electron integrals.
	Sorting File: SO Ints (nn|nn) nbuckets = 1
	Transforming the one-electron integrals and constructing Fock matrices
	Starting AA/AB first half-transformation.
	Sorting AA/AB half-transformed integrals.
	Starting BB first half-transformation.
	Sorting BB half-transformed integrals.
	First half integral transformation complete.
	Starting AA second half-transformation.
	Starting AB second half-transformation.
	Starting BB second half-transformation.
	Two-electron integral transformation complete.
	(OO|OV)...
	Starting AA second half-transformation.
	Starting AB second half-transformation.
	Starting BB second half-transformation.
	Two-electron integral transformation complete.
	(OO|VV)...
	Starting AA second half-transformation.
	Starting AB second half-transformation.
	Starting BB second half-transformation.
	Two-electron integral transformation complete.
	(OV|OO)...
	Starting AA/AB first half-transformation.
	Sorting AA/AB half-transformed integrals.
	Starting BB first half-transformation.
	Sorting BB half-transformed integrals.
	First half integral transformation complete.
	Starting AA second half-transformation.
	Starting AB second half-transformation.
	Starting BB second half-transformation.
	Two-electron integral transformation complete.
	(OV|OV)...
	Starting AA second half-transformation.
	Starting AB second half-transformation.
	Starting BB second half-transformation.
	Two-electron integral transformation complete.
	(OV|VV)...
	Starting AA second half-transformation.
	Starting AB second half-transformation.
	Starting BB second half-transformation.
	Two-electron integral transformation complete.
	(VV|OO)...
	Starting AA/AB first half-transformation.
	Sorting AA/AB half-transformed integrals.
	Starting BB first half-transformation.
	Sorting BB half-transformed integrals.
	First half integral transformation complete.
	Starting AA second half-transformation.
	Starting AB second half-transformation.
	Starting BB second half-transformation.
	Two-electron integral transformation complete.
	(VV|OV)...
	Starting AA second half-transformation.
	Starting AB second half-transformation.
	Starting BB second half-transformation.
	Two-electron integral transformation complete.
	(VV|VV)...
	Starting AA second half-transformation.
	Starting AB second half-transformation.
	Starting BB second half-transformation.
	Two-electron integral transformation complete.
	Frozen core energy     =   -126.36576544094606

	Size of irrep 0 of <AB|CD> integrals:     19.643 (MW) /    157.141 (MB)
	Size of irrep 1 of <AB|CD> integrals:     13.660 (MW) /    109.283 (MB)
	Total:                                    33.303 (MW) /    266.424 (MB)

	Size of irrep 0 of <ab|cd> integrals:     20.794 (MW) /    166.349 (MB)
	Size of irrep 1 of <ab|cd> integrals:     14.631 (MW) /    117.045 (MB)
	Total:                                    35.424 (MW) /    283.394 (MB)

	Size of irrep 0 of <Ab|Cd> integrals:     83.174 (MW) /    665.395 (MB)
	Size of irrep 1 of <Ab|Cd> integrals:     56.550 (MW) /    452.403 (MB)
	Total:                                   139.725 (MW) /   1117.798 (MB)

	Size of irrep 0 of <IA|BC> integrals:      5.323 (MW) /     42.586 (MB)
	Size of irrep 1 of <IA|BC> integrals:      3.193 (MW) /     25.547 (MB)
	Total:                                     8.517 (MW) /     68.133 (MB)

	Size of irrep 0 of <ia|bc> integrals:      4.348 (MW) /     34.780 (MB)
	Size of irrep 1 of <ia|bc> integrals:      2.372 (MW) /     18.972 (MB)
	Total:                                     6.719 (MW) /     53.752 (MB)

	Size of irrep 0 of <Ia|Bc> integrals:      5.472 (MW) /     43.776 (MB)
	Size of irrep 1 of <Ia|Bc> integrals:      3.309 (MW) /     26.470 (MB)
	Total:                                     8.781 (MW) /     70.246 (MB)

	Size of irrep 0 of <iA|bC> integrals:      4.232 (MW) /     33.853 (MB)
	Size of irrep 1 of <iA|bC> integrals:      2.286 (MW) /     18.289 (MB)
	Total:                                     6.518 (MW) /     52.142 (MB)

	Size of irrep 0 of tIjAb amplitudes:       0.292 (MW) /      2.335 (MB)
	Size of irrep 1 of tIjAb amplitudes:       0.120 (MW) /      0.963 (MB)
	Total:                                     0.412 (MW) /      3.297 (MB)

	Nuclear Rep. energy          =     23.81382830845816
	SCF energy                   =   -150.87352408775945
	One-electron energy          =    -85.39384498207411
	Two-electron (AA) energy     =     10.36146211284598
	Two-electron (BB) energy     =      5.46567207273560
	Two-electron (AB) energy     =     21.24512384121856
	Two-electron energy          =     37.07225802680014
	Reference energy             =   -150.87352408776189

*** tstop() called on d3-17.compute.lan at Wed Mar 10 10:56:49 2021
Module time:
	user time   =     259.61 seconds =       4.33 minutes
	system time =      19.96 seconds =       0.33 minutes
	total time  =         42 seconds =       0.70 minutes
Total time:
	user time   =     313.55 seconds =       5.23 minutes
	system time =      23.27 seconds =       0.39 minutes
	total time  =         52 seconds =       0.87 minutes
            **************************
            *                        *
            *        CCENERGY        *
            *                        *
            **************************

    Nuclear Rep. energy (wfn)     =   23.813828308458159
    SCF energy          (wfn)     = -150.873524087759449
    Reference energy    (file100) = -150.873524087761893

    Input parameters:
    -----------------
    Wave function   =     CCSD_T
    Reference wfn   =     UHF
    Brueckner       =     No
    Memory (Mbytes) =     4000.0
    Maxiter         =     50
    R_Convergence   =     1.0e-10
    E_Convergence   =     1.0e-10
    Restart         =     Yes
    DIIS            =     Yes
    AO Basis        =     NONE
    ABCD            =     NEW
    Cache Level     =     2
    Cache Type      =     LRU
    Print Level     =     1
    Num. of threads =     12
    # Amps to Print =     10
    Print MP2 Amps? =     No
    Analyze T2 Amps =     No
    Print Pair Ener =     No
    Local CC        =     No
    SCS-MP2         =     False
    SCSN-MP2        =     False
    SCS-CCSD        =     False

MP2 correlation energy -0.4162745534358638
                Solving CC Amplitude Equations
                ------------------------------
  Iter             Energy              RMS        T1Diag      D1Diag    New D1Diag    D2Diag
  ----     ---------------------    ---------   ----------  ----------  ----------   --------
     0        -0.416274553435864    0.000e+00    0.000000    0.000000    0.000000    0.000000
     1        -0.427054511931563    5.698e-02    0.010579    0.000000    0.000000    0.000000
     2        -0.435151676775629    1.703e-02    0.011073    0.000000    0.000000    0.000000
     3        -0.437303193678830    8.772e-03    0.012994    0.000000    0.000000    0.000000
     4        -0.437176778214364    2.680e-03    0.013403    0.000000    0.000000    0.000000
     5        -0.437167288191540    1.394e-03    0.013595    0.000000    0.000000    0.000000
     6        -0.437196351765282    5.294e-04    0.013621    0.000000    0.000000    0.000000
     7        -0.437199325590429    2.145e-04    0.013615    0.000000    0.000000    0.000000
     8        -0.437200265639989    6.677e-05    0.013611    0.000000    0.000000    0.000000
     9        -0.437200950954475    2.385e-05    0.013610    0.000000    0.000000    0.000000
    10        -0.437200051825214    9.219e-06    0.013610    0.000000    0.000000    0.000000
    11        -0.437200217382539    4.001e-06    0.013610    0.000000    0.000000    0.000000
    12        -0.437200177689472    1.451e-06    0.013610    0.000000    0.000000    0.000000
    13        -0.437200185608797    7.418e-07    0.013610    0.000000    0.000000    0.000000
    14        -0.437200208180531    3.312e-07    0.013610    0.000000    0.000000    0.000000
    15        -0.437200209884622    1.700e-07    0.013610    0.000000    0.000000    0.000000
    16        -0.437200210472917    1.369e-07    0.013610    0.000000    0.000000    0.000000
    17        -0.437200211174500    1.276e-07    0.013610    0.000000    0.000000    0.000000
    18        -0.437200210901761    1.251e-07    0.013610    0.000000    0.000000    0.000000
    19        -0.437200209889190    1.220e-07    0.013610    0.000000    0.000000    0.000000
    20        -0.437200209897949    1.166e-07    0.013610    0.000000    0.000000    0.000000
    21        -0.437200209191727    9.805e-08    0.013610    0.000000    0.000000    0.000000
    22        -0.437200210000630    6.015e-08    0.013610    0.000000    0.000000    0.000000
    23        -0.437200210515155    2.991e-08    0.013610    0.000000    0.000000    0.000000
    24        -0.437200210631896    1.293e-08    0.013610    0.000000    0.000000    0.000000
    25        -0.437200210600232    5.503e-09    0.013610    0.000000    0.000000    0.000000
    26        -0.437200210605352    2.082e-09    0.013610    0.000000    0.000000    0.000000
    27        -0.437200210610269    9.156e-10    0.013610    0.000000    0.000000    0.000000
    28        -0.437200210620652    4.555e-10    0.013610    0.000000    0.000000    0.000000
    29        -0.437200210624203    1.881e-10    0.013610    0.000000    0.000000    0.000000
    30        -0.437200210626087    8.359e-11    0.013610    0.000000    0.000000    0.000000

    Iterations converged.


    Largest TIA Amplitudes:
              7  84        -0.0133343017
              7  87        -0.0111767465
              5   5         0.0103449736
              7  85        -0.0097200591
              6  84        -0.0074633437
              4   2         0.0073932217
              3   6         0.0072091517
              6  85         0.0071609718
              4   9        -0.0055858889
              4  10         0.0053770726

    Largest Tia Amplitudes:
              5  86        -0.0148350762
              3   3         0.0134215991
              5  89        -0.0107902995
              4   6         0.0079595825
              5  85        -0.0076695990
              3   2        -0.0068080614
              3  12         0.0056047040
              3  10        -0.0055722804
              1  43        -0.0054439304
              2  37        -0.0053917748

    Largest TIJAB Amplitudes:
      6   5  93  22        -0.0142495814
      6   5 103  40         0.0135607888
      5   3  22  20         0.0121148086
      6   3  93  20         0.0110282841
      7   2  90  16         0.0086543942
      6   5  89  40        -0.0082344929
      7   2  95  13        -0.0080798271
      6   5  93   5         0.0078303809
      6   5 103  15         0.0076128003
      6   5 112  22         0.0073675212

    Largest Tijab Amplitudes:
      4   1 105  85        -0.0086752651
      4   1  91  85         0.0085722546
      4   1 105  87        -0.0081613641
      5   2  86  14        -0.0076501638
      4   1  91  87         0.0074573598
      5   2  96  14        -0.0073224239
      3   2  14   3        -0.0071819274
      3   2  20  14         0.0068622658
      3   2  16  15        -0.0067272503
      5   2  92  17         0.0065443905

    Largest TIjAb Amplitudes:
      5   4  22  24         0.0218370158
      2   2  13  14        -0.0218281446
      5   4  22  23        -0.0187965120
      5   1 103  85        -0.0180289136
      5   4  22   6         0.0170304071
      5   1 103  87        -0.0168129145
      6   1  40  85        -0.0167263334
      7   5  95  96        -0.0162573249
      6   1  40  87        -0.0155578427
      6   4  93  24         0.0145421162

    SCF energy       (wfn)                    = -150.873524087759449
    Reference energy (file100)                = -150.873524087761893

    Opposite-spin MP2 correlation energy      =   -0.314433142146284
    Same-spin MP2 correlation energy          =   -0.101841411289580
    MP2 correlation energy                    =   -0.416274553435864
      * MP2 total energy                      = -151.289798641197763

    Opposite-spin CCSD correlation energy     =   -0.342092583308906
    Same-spin CCSD correlation energy         =   -0.095107627317182
    CCSD correlation energy                   =   -0.437200210626087
      * CCSD total energy                     = -151.310724298387981

            **************************
            *                        *
            *        CCTRIPLES       *
            *                        *
            **************************


    Wave function   =    CCSD_T
    Reference wfn   =      UHF

    Nuclear Rep. energy (wfn)                =   23.813828308458159
    SCF energy          (wfn)                = -150.873524087759449
    Reference energy    (file100)            = -150.873524087761893
    CCSD energy         (file100)            =   -0.437200210626087
    Total CCSD energy   (file100)            = -151.310724298387981

    Number of ijk index combinations:
    Spin Case AAA:                                  56
    Spin Case BBB:                                  20
    Spin Case AAB:                                 168
    Spin Case ABB:                                 120
    AAA (T) energy                             =   -0.000395720927545
    BBB (T) energy                             =   -0.000202137654058
    AAB (T) energy                             =   -0.006709968244576
    ABB (T) energy                             =   -0.004985168677758
    (T) energy                                   =   -0.012292995503937
      * CCSD(T) total energy                     = -151.323017293891922

Stephenergy -151.32301729389192
    Psi4 stopped on: Wednesday, 10 March 2021 10:59AM
    Psi4 wall time for execution: 0:03:40.88

*** Psi4 exiting successfully. Buy a developer a beer!
