
    -----------------------------------------------------------------------
          Psi4: An Open-Source Ab Initio Electronic Structure Package
                               Psi4 1.3.2 release

                         Git: Rev {HEAD} ecbda83 


    R. M. Parrish, L. A. Burns, D. G. A. Smith, A. C. Simmonett,
    A. E. DePrince III, E. G. Hohenstein, U. Bozkaya, A. Yu. Sokolov,
    R. Di Remigio, R. M. Richard, J. F. Gonthier, A. M. James,
    H. R. McAlexander, A. Kumar, M. Saitow, X. Wang, B. P. Pritchard,
    P. Verma, H. F. Schaefer III, K. Patkowski, R. A. King, E. F. Valeev,
    F. A. Evangelista, J. M. Turney, T. D. Crawford, and C. D. Sherrill,
    J. Chem. Theory Comput. 13(7) pp 3185--3197 (2017).
    (doi: 10.1021/acs.jctc.7b00174)


                         Additional Contributions by
    P. Kraus, H. Kruse, M. H. Lechner, M. C. Schieber, R. A. Shaw,
    A. Alenaizan, R. Galvelis, Z. L. Glick, S. Lehtola, and J. P. Misiewicz

    -----------------------------------------------------------------------


    Psi4 started on: Monday, 08 March 2021 05:37PM

    Process ID: 149532
    Host:       c4-17.compute.lan
    PSIDATADIR: /apps/gb/PSI4/1.3.2/share/psi4
    Memory:     500.0 MiB
    Threads:    12
    
  ==> Input File <==

--------------------------------------------------------------------------
memory 4 GB

molecule  {
0 3
O    0.000000000000    0.000000000000    1.268861218882
H    0.000000000000   -0.758095927468    1.857959265782
H   -0.000000000000    0.758095927468    1.857959265782
O    0.000000000000    0.000000000000   -1.502997868118
}
set {
basis aug-cc-pvtz
reference uhf
e_convergence 10
scf_type pk
freeze_core true
}

set ccenergy {
e_convergence 10
r_convergence 10
}

e = energy('ccsd(t)')

print_out('Stephenergy {}'.format(e))

--------------------------------------------------------------------------

  Memory set to   3.725 GiB by Python driver.

*** tstart() called on c4-17.compute.lan
*** at Mon Mar  8 17:37:13 2021

   => Loading Basis Set <=

    Name: AUG-CC-PVTZ
    Role: ORBITAL
    Keyword: BASIS
    atoms 1, 4 entry O          line   327 file /apps/gb/PSI4/1.3.2/share/psi4/basis/aug-cc-pvtz.gbs 
    atoms 2-3  entry H          line    36 file /apps/gb/PSI4/1.3.2/share/psi4/basis/aug-cc-pvtz.gbs 


         ---------------------------------------------------------
                                   SCF
               by Justin Turney, Rob Parrish, Andy Simmonett
                          and Daniel G. A. Smith
                              UHF Reference
                       12 Threads,   3814 MiB Core
         ---------------------------------------------------------

  ==> Geometry <==

    Molecular point group: c2v
    Full point group: C2v

    Geometry (in Angstrom), charge = 0, multiplicity = 3:

       Center              X                  Y                   Z               Mass       
    ------------   -----------------  -----------------  -----------------  -----------------
         O           -0.000000000000     0.000000000000     1.268861218882    15.994914619570
         H            0.000000000000    -0.758095927468     1.857959265782     1.007825032230
         H           -0.000000000000     0.758095927468     1.857959265782     1.007825032230
         O           -0.000000000000     0.000000000000    -1.502997868118    15.994914619570

  Running in c2v symmetry.

  Rotational constants: A =     14.55235  B =      0.24487  C =      0.24082 [cm^-1]
  Rotational constants: A = 436268.37818  B =   7341.08430  C =   7219.60015 [MHz]
  Nuclear repulsion =   23.843651786165147

  Charge       = 0
  Multiplicity = 3
  Electrons    = 18
  Nalpha       = 10
  Nbeta        = 8

  ==> Algorithm <==

  SCF Algorithm Type is PK.
  DIIS enabled.
  MOM disabled.
  Fractional occupation disabled.
  Guess Type is SAD.
  Energy threshold   = 1.00e-10
  Density threshold  = 1.00e-08
  Integral threshold = 0.00e+00

  ==> Primary Basis <==

  Basis Set: AUG-CC-PVTZ
    Blend: AUG-CC-PVTZ
    Number of shells: 46
    Number of basis function: 138
    Number of Cartesian functions: 160
    Spherical Harmonics?: true
    Max angular momentum: 3

  ==> Pre-Iterations <==

   -------------------------------------------------------
    Irrep   Nso     Nmo     Nalpha   Nbeta   Ndocc  Nsocc
   -------------------------------------------------------
     A1        54      54       0       0       0       0
     A2        17      17       0       0       0       0
     B1        29      29       0       0       0       0
     B2        38      38       0       0       0       0
   -------------------------------------------------------
    Total     138     138      10       8       8       2
   -------------------------------------------------------

  ==> Integral Setup <==

  Using in-core PK algorithm.
   Calculation information:
      Number of atoms:                   4
      Number of AO shells:              46
      Number of primitives:             82
      Number of atomic orbitals:       160
      Number of basis functions:       138

      Integral cutoff                 1.00e-12
      Number of threads:                12

  Performing in-core PK
  Using 91996872 doubles for integral storage.
  We computed 909803 shell quartets total.
  Whereas there are 584821 unique shell quartets.
    55.57 percent of shell quartets recomputed by reordering.

  ==> DiskJK: Disk-Based J/K Matrices <==

    J tasked:                  Yes
    K tasked:                  Yes
    wK tasked:                  No
    Memory [MiB]:             2861
    Schwarz Cutoff:          1E-12

    OpenMP threads:             12

  Minimum eigenvalue in the overlap matrix is 3.2230539493E-04.
  Using Symmetric Orthogonalization.

  SCF Guess: Superposition of Atomic Densities via on-the-fly atomic UHF.

  ==> Iterations <==

                        Total Energy        Delta E     RMS |[F,P]|

   @UHF iter SAD:  -149.38337022035870   -1.49383e+02   0.00000e+00 
   @UHF iter   1:  -150.77004884494909   -1.38668e+00   6.69925e-03 DIIS
   @UHF iter   2:  -150.84086074261913   -7.08119e-02   4.25264e-03 DIIS
   @UHF iter   3:  -150.87208642888089   -3.12257e-02   5.58595e-04 DIIS
   @UHF iter   4:  -150.87345889500628   -1.37247e-03   1.70856e-04 DIIS
   @UHF iter   5:  -150.87359260093027   -1.33706e-04   6.97867e-05 DIIS
   @UHF iter   6:  -150.87362568593764   -3.30850e-05   2.08510e-05 DIIS
   @UHF iter   7:  -150.87362878801949   -3.10208e-06   5.35334e-06 DIIS
   @UHF iter   8:  -150.87362901202965   -2.24010e-07   1.49003e-06 DIIS
   @UHF iter   9:  -150.87362902891013   -1.68805e-08   3.69162e-07 DIIS
   @UHF iter  10:  -150.87362903000630   -1.09617e-09   1.76943e-07 DIIS
   @UHF iter  11:  -150.87362903034580   -3.39497e-10   6.88491e-08 DIIS
   @UHF iter  12:  -150.87362903039863   -5.28360e-11   1.47886e-08 DIIS
   @UHF iter  13:  -150.87362903040034   -1.70530e-12   4.42709e-09 DIIS
  Energy and wave function converged.


  ==> Post-Iterations <==

   @Spin Contamination Metric:   9.531951877E-03
   @S^2 Expected:                2.000000000E+00
   @S^2 Observed:                2.009531952E+00
   @S   Expected:                1.000000000E+00
   @S   Observed:                1.000000000E+00

    Orbital Energies [Eh]
    ---------------------

    Alpha Occupied:                                                       

       1A1   -20.684482     2A1   -20.570981     3A1    -1.393917  
       4A1    -1.356146     1B2    -0.719374     5A1    -0.688216  
       1B1    -0.685211     6A1    -0.586906     2B2    -0.586220  
       2B1    -0.514139  

    Alpha Virtual:                                                        

       7A1     0.029566     3B2     0.047685     8A1     0.118543  
       3B1     0.154031     9A1     0.159500     4B2     0.180353  
       5B2     0.186955     4B1     0.192735    10A1     0.198118  
       1A2     0.263756     6B2     0.264176    11A1     0.264899  
      12A1     0.314336     5B1     0.326730    13A1     0.376001  
       7B2     0.380445    14A1     0.450371     8B2     0.464617  
       9B2     0.599973     6B1     0.643631    15A1     0.647569  
       2A2     0.658164    16A1     0.666716    17A1     0.696418  
       3A2     0.721759    10B2     0.722804     7B1     0.767613  
      18A1     0.792684    19A1     0.818836     8B1     0.838059  
      20A1     0.861498     9B1     0.901165    11B2     0.918625  
       4A2     0.924997    12B2     0.946631    13B2     0.980249  
      21A1     0.990064    10B1     1.012881    22A1     1.046819  
      14B2     1.051883    11B1     1.122333     5A2     1.177227  
      23A1     1.192281    15B2     1.198996    16B2     1.326869  
      24A1     1.336434    25A1     1.444083     6A2     1.507725  
      12B1     1.594784    26A1     1.666124    27A1     1.811688  
      17B2     1.824281    18B2     1.978242    28A1     2.040821  
      13B1     2.047894    19B2     2.054104     7A2     2.056933  
      14B1     2.058995    29A1     2.079869    30A1     2.114953  
       8A2     2.118779    20B2     2.135649    31A1     2.141376  
      15B1     2.145766    32A1     2.252531    21B2     2.268050  
      16B1     2.303206     9A2     2.312161    17B1     2.434901  
      33A1     2.470954    22B2     2.481880    34A1     2.487566  
      35A1     2.695373    18B1     2.715685    23B2     2.719951  
      36A1     2.841901    24B2     2.861251    10A2     2.880962  
      25B2     3.693425    37A1     3.754612    11A2     4.014945  
      19B1     4.080895    20B1     4.099550    38A1     4.139671  
      26B2     4.183767    27B2     4.283957    21B1     4.288774  
      39A1     4.352185    12A2     4.382405    40A1     4.426324  
      22B1     4.453151    28B2     4.517221    41A1     4.791595  
      29B2     4.844672    30B2     5.145544    13A2     5.147886  
      31B2     5.249587    42A1     5.345985    23B1     5.521046  
      43A1     5.685355    44A1     6.201896    24B1     6.389213  
      45A1     6.409148    14A2     6.410239    32B2     6.423664  
      25B1     6.435575    33B2     6.486096    46A1     6.537560  
      34B2     6.581021    26B1     6.716855    27B1     6.902467  
      47A1     6.906463    15A2     6.924569    48A1     6.942292  
      35B2     6.985794    49A1     7.047212    28B1     7.136312  
      29B1     7.279584    16A2     7.309509    36B2     7.310549  
      17A2     7.352755    50A1     7.439593    51A1     7.546378  
      52A1     7.909862    37B2     7.921371    38B2     8.813364  
      53A1     8.863083    54A1    15.818608  

    Beta Occupied:                                                        

       1A1   -20.605615     2A1   -20.570515     3A1    -1.355461  
       4A1    -1.051104     1B2    -0.719043     5A1    -0.588678  
       1B1    -0.513475     2B2    -0.495637  

    Beta Virtual:                                                         

       6A1     0.029407     3B2     0.047766     2B1     0.086532  
       7A1     0.091942     8A1     0.140947     9A1     0.167083  
       3B1     0.170580     4B2     0.180977     5B2     0.190550  
      10A1     0.225660     4B1     0.253297     1A2     0.263759  
       6B2     0.264622    11A1     0.288451    12A1     0.316730  
       5B1     0.328032     7B2     0.380618    13A1     0.386368  
      14A1     0.451450     8B2     0.464813     9B2     0.601599  
      15A1     0.660746     6B1     0.667453     2A2     0.672581  
      16A1     0.673613    17A1     0.713712     3A2     0.722225  
      10B2     0.735014     7B1     0.778919    18A1     0.806041  
       8B1     0.847163    19A1     0.851496     4A2     0.925388  
      20A1     0.927944    11B2     0.936449    12B2     0.953637  
      13B2     0.983976     9B1     0.986630    21A1     0.997366  
      22A1     1.052914    14B2     1.052987    10B1     1.060556  
      11B1     1.138444     5A2     1.177426    23A1     1.193781  
      15B2     1.201703    16B2     1.329281    24A1     1.393037  
      25A1     1.483160     6A2     1.508143    12B1     1.596755  
      26A1     1.696525    27A1     1.816751    17B2     1.824622  
      18B2     1.979667    28A1     2.070513    13B1     2.070849  
      19B2     2.071518     7A2     2.081580    29A1     2.100494  
      14B1     2.100656    30A1     2.155968    20B2     2.181535  
       8A2     2.201992    31A1     2.207873    15B1     2.258713  
      32A1     2.309526     9A2     2.312293    16B1     2.318949  
      21B2     2.319663    17B1     2.442745    33A1     2.484242  
      22B2     2.484736    34A1     2.515698    35A1     2.702913  
      18B1     2.717410    23B2     2.720860    36A1     2.853939  
      24B2     2.861426    10A2     2.880996    25B2     3.694299  
      37A1     3.754745    11A2     4.014974    19B1     4.083410  
      38A1     4.171884    26B2     4.219791    20B1     4.259714  
      21B1     4.293520    27B2     4.294410    12A2     4.382512  
      39A1     4.425352    22B1     4.458283    40A1     4.468734  
      28B2     4.517297    41A1     4.802374    29B2     4.844828  
      30B2     5.145726    13A2     5.147961    31B2     5.250000  
      42A1     5.346643    23B1     5.521157    43A1     5.689910  
      44A1     6.203589    24B1     6.485677    14A2     6.487068  
      32B2     6.487799    45A1     6.493231    25B1     6.499442  
      33B2     6.521312    34B2     6.609377    46A1     6.609402  
      26B1     6.723756    47A1     6.958931    15A2     7.038122  
      48A1     7.041997    27B1     7.085078    35B2     7.097654  
      28B1     7.136707    49A1     7.174064    29B1     7.283685  
      16A2     7.309789    36B2     7.310735    17A2     7.353157  
      50A1     7.442376    51A1     7.547421    52A1     7.910428  
      37B2     7.921720    38B2     8.813735    53A1     8.942476  
      54A1    15.818927  

    Final Occupation by Irrep:
             A1    A2    B1    B2 
    DOCC [     5,    0,    1,    2 ]
    SOCC [     1,    0,    1,    0 ]

  @UHF Final Energy:  -150.87362903040034

   => Energetics <=

    Nuclear Repulsion Energy =             23.8436517861651467
    One-Electron Energy =                -255.7494408177005880
    Two-Electron Energy =                  81.0321600011351109
    Total Energy =                       -150.8736290304003376

  UHF NO Occupations:
  HONO-2 :    5 A1 1.9970492
  HONO-1 :    2 B1 1.0000000
  HONO-0 :    6 A1 1.0000000
  LUNO+0 :    7 A1 0.0029508
  LUNO+1 :    3 B2 0.0017953
  LUNO+2 :    8 A1 0.0000218
  LUNO+3 :    9 A1 0.0000024


Computation Completed


Properties will be evaluated at   0.000000,   0.000000,   0.000000 [a0]

Properties computed using the SCF density matrix

  Nuclear Dipole Moment: [e a0]
     X:    -0.0000      Y:     0.0000      Z:     3.4824

  Electronic Dipole Moment: [e a0]
     X:     0.0000      Y:     0.0000      Z:    -2.6458

  Dipole Moment: [e a0]
     X:    -0.0000      Y:     0.0000      Z:     0.8367     Total:     0.8367

  Dipole Moment: [D]
     X:    -0.0000      Y:     0.0000      Z:     2.1266     Total:     2.1266


*** tstop() called on c4-17.compute.lan at Mon Mar  8 17:37:18 2021
Module time:
	user time   =      45.32 seconds =       0.76 minutes
	system time =       0.91 seconds =       0.02 minutes
	total time  =          5 seconds =       0.08 minutes
Total time:
	user time   =      45.32 seconds =       0.76 minutes
	system time =       0.91 seconds =       0.02 minutes
	total time  =          5 seconds =       0.08 minutes
 MINTS: Wrapper to libmints.
   by Justin Turney

   Calculation information:
      Number of threads:                12
      Number of atoms:                   4
      Number of AO shells:              46
      Number of SO shells:              37
      Number of primitives:             82
      Number of atomic orbitals:       160
      Number of basis functions:       138

      Number of irreps:                  4
      Integral cutoff                 0.00e+00
      Number of functions per irrep: [  54   17   29   38 ]

 OEINTS: Overlap, kinetic, potential, dipole, and quadrupole integrals
         stored in file 35.

      Computing two-electron integrals...done
      Computed 11520600 non-zero two-electron integrals.
        Stored in file 33.


*** tstart() called on c4-17.compute.lan
*** at Mon Mar  8 17:37:20 2021


	Wfn Parameters:
	--------------------
	Wavefunction         = CCSD_T
	Number of irreps     = 4
	Number of MOs        = 138
	Number of active MOs = 136
	AO-Basis             = NONE
	Semicanonical        = false
	Reference            = UHF
	Print Level          = 1

	IRREP	# MOs	# FZDC	# DOCC	# SOCC	# VIRT	# FZVR
	-----	-----	------	------	------	------	------
	 A1	   54	    2	    3	    1	    48	    0
	 A2	   17	    0	    0	    0	    17	    0
	 B1	   29	    0	    1	    1	    27	    0
	 B2	   38	    0	    2	    0	    36	    0
	Transforming integrals...
	IWL integrals will be deleted.
	(OO|OO)...
	Presorting SO-basis two-electron integrals.
	Sorting File: SO Ints (nn|nn) nbuckets = 1
	Transforming the one-electron integrals and constructing Fock matrices
	Starting AA/AB first half-transformation.
	Sorting AA/AB half-transformed integrals.
	Starting BB first half-transformation.
	Sorting BB half-transformed integrals.
	First half integral transformation complete.
	Starting AA second half-transformation.
	Starting AB second half-transformation.
	Starting BB second half-transformation.
	Two-electron integral transformation complete.
	(OO|OV)...
	Starting AA second half-transformation.
	Starting AB second half-transformation.
	Starting BB second half-transformation.
	Two-electron integral transformation complete.
	(OO|VV)...
	Starting AA second half-transformation.
	Starting AB second half-transformation.
	Starting BB second half-transformation.
	Two-electron integral transformation complete.
	(OV|OO)...
	Starting AA/AB first half-transformation.
	Sorting AA/AB half-transformed integrals.
	Starting BB first half-transformation.
	Sorting BB half-transformed integrals.
	First half integral transformation complete.
	Starting AA second half-transformation.
	Starting AB second half-transformation.
	Starting BB second half-transformation.
	Two-electron integral transformation complete.
	(OV|OV)...
	Starting AA second half-transformation.
	Starting AB second half-transformation.
	Starting BB second half-transformation.
	Two-electron integral transformation complete.
	(OV|VV)...
	Starting AA second half-transformation.
	Starting AB second half-transformation.
	Starting BB second half-transformation.
	Two-electron integral transformation complete.
	(VV|OO)...
	Starting AA/AB first half-transformation.
	Sorting AA/AB half-transformed integrals.
	Starting BB first half-transformation.
	Sorting BB half-transformed integrals.
	First half integral transformation complete.
	Starting AA second half-transformation.
	Starting AB second half-transformation.
	Starting BB second half-transformation.
	Two-electron integral transformation complete.
	(VV|OV)...
	Starting AA second half-transformation.
	Starting AB second half-transformation.
	Starting BB second half-transformation.
	Two-electron integral transformation complete.
	(VV|VV)...
	Starting AA second half-transformation.
	Starting AB second half-transformation.
	Starting BB second half-transformation.
	Two-electron integral transformation complete.
	Frozen core energy     =   -126.37534829822906

	Size of irrep 0 of <AB|CD> integrals:      5.040 (MW) /     40.320 (MB)
	Size of irrep 1 of <AB|CD> integrals:      3.197 (MW) /     25.576 (MB)
	Size of irrep 2 of <AB|CD> integrals:      3.640 (MW) /     29.124 (MB)
	Size of irrep 3 of <AB|CD> integrals:      4.783 (MW) /     38.264 (MB)
	Total:                                    16.660 (MW) /    133.283 (MB)

	Size of irrep 0 of <ab|cd> integrals:      5.382 (MW) /     43.059 (MB)
	Size of irrep 1 of <ab|cd> integrals:      3.389 (MW) /     27.114 (MB)
	Size of irrep 2 of <ab|cd> integrals:      3.936 (MW) /     31.490 (MB)
	Size of irrep 3 of <ab|cd> integrals:      5.018 (MW) /     40.141 (MB)
	Total:                                    17.726 (MW) /    141.804 (MB)

	Size of irrep 0 of <Ab|Cd> integrals:     22.024 (MW) /    176.194 (MB)
	Size of irrep 1 of <Ab|Cd> integrals:     13.170 (MW) /    105.357 (MB)
	Size of irrep 2 of <Ab|Cd> integrals:     15.140 (MW) /    121.119 (MB)
	Size of irrep 3 of <Ab|Cd> integrals:     19.598 (MW) /    156.787 (MB)
	Total:                                    69.932 (MW) /    559.457 (MB)

	Size of irrep 0 of <IA|BC> integrals:      1.469 (MW) /     11.748 (MB)
	Size of irrep 1 of <IA|BC> integrals:      0.694 (MW) /      5.550 (MB)
	Size of irrep 2 of <IA|BC> integrals:      0.908 (MW) /      7.266 (MB)
	Size of irrep 3 of <IA|BC> integrals:      1.198 (MW) /      9.588 (MB)
	Total:                                     4.269 (MW) /     34.152 (MB)

	Size of irrep 0 of <ia|bc> integrals:      1.178 (MW) /      9.426 (MB)
	Size of irrep 1 of <ia|bc> integrals:      0.527 (MW) /      4.212 (MB)
	Size of irrep 2 of <ia|bc> integrals:      0.663 (MW) /      5.301 (MB)
	Size of irrep 3 of <ia|bc> integrals:      0.999 (MW) /      7.992 (MB)
	Total:                                     3.366 (MW) /     26.931 (MB)

	Size of irrep 0 of <Ia|Bc> integrals:      1.521 (MW) /     12.164 (MB)
	Size of irrep 1 of <Ia|Bc> integrals:      0.711 (MW) /      5.690 (MB)
	Size of irrep 2 of <Ia|Bc> integrals:      0.949 (MW) /      7.595 (MB)
	Size of irrep 3 of <Ia|Bc> integrals:      1.222 (MW) /      9.775 (MB)
	Total:                                     4.403 (MW) /     35.225 (MB)

	Size of irrep 0 of <iA|bC> integrals:      1.140 (MW) /      9.123 (MB)
	Size of irrep 1 of <iA|bC> integrals:      0.512 (MW) /      4.094 (MB)
	Size of irrep 2 of <iA|bC> integrals:      0.634 (MW) /      5.074 (MB)
	Size of irrep 3 of <iA|bC> integrals:      0.978 (MW) /      7.827 (MB)
	Total:                                     3.265 (MW) /     26.118 (MB)

	Size of irrep 0 of tIjAb amplitudes:       0.084 (MW) /      0.676 (MB)
	Size of irrep 1 of tIjAb amplitudes:       0.022 (MW) /      0.174 (MB)
	Size of irrep 2 of tIjAb amplitudes:       0.039 (MW) /      0.311 (MB)
	Size of irrep 3 of tIjAb amplitudes:       0.062 (MW) /      0.496 (MB)
	Total:                                     0.207 (MW) /      1.657 (MB)

	Nuclear Rep. energy          =     23.84365178616515
	SCF energy                   =   -150.87362903040034
	One-electron energy          =    -85.43033729119563
	Two-electron (AA) energy     =     10.36588362025975
	Two-electron (BB) energy     =      5.46850319346188
	Two-electron (AB) energy     =     21.25401795913647
	Two-electron energy          =     37.08840477285810
	Reference energy             =   -150.87362903040145

*** tstop() called on c4-17.compute.lan at Mon Mar  8 17:37:40 2021
Module time:
	user time   =      51.02 seconds =       0.85 minutes
	system time =       9.36 seconds =       0.16 minutes
	total time  =         20 seconds =       0.33 minutes
Total time:
	user time   =     102.11 seconds =       1.70 minutes
	system time =      10.70 seconds =       0.18 minutes
	total time  =         27 seconds =       0.45 minutes
            **************************
            *                        *
            *        CCENERGY        *
            *                        *
            **************************

    Nuclear Rep. energy (wfn)     =   23.843651786165147
    SCF energy          (wfn)     = -150.873629030400338
    Reference energy    (file100) = -150.873629030401446

    Input parameters:
    -----------------
    Wave function   =     CCSD_T
    Reference wfn   =     UHF
    Brueckner       =     No
    Memory (Mbytes) =     4000.0
    Maxiter         =     50
    R_Convergence   =     1.0e-10
    E_Convergence   =     1.0e-10
    Restart         =     Yes
    DIIS            =     Yes
    AO Basis        =     NONE
    ABCD            =     NEW
    Cache Level     =     2
    Cache Type      =     LRU
    Print Level     =     1
    Num. of threads =     12
    # Amps to Print =     10
    Print MP2 Amps? =     No
    Analyze T2 Amps =     No
    Print Pair Ener =     No
    Local CC        =     No
    SCS-MP2         =     False
    SCSN-MP2        =     False
    SCS-CCSD        =     False

MP2 correlation energy -0.4161650214212989
                Solving CC Amplitude Equations
                ------------------------------
  Iter             Energy              RMS        T1Diag      D1Diag    New D1Diag    D2Diag
  ----     ---------------------    ---------   ----------  ----------  ----------   --------
     0        -0.416165021421299    0.000e+00    0.000000    0.000000    0.000000    0.000000
     1        -0.426978759116426    5.689e-02    0.010563    0.000000    0.000000    0.000000
     2        -0.435061903353305    1.699e-02    0.011060    0.000000    0.000000    0.000000
     3        -0.437207116351362    8.756e-03    0.012978    0.000000    0.000000    0.000000
     4        -0.437080699098746    2.679e-03    0.013386    0.000000    0.000000    0.000000
     5        -0.437071256077647    1.393e-03    0.013579    0.000000    0.000000    0.000000
     6        -0.437100368649250    5.289e-04    0.013605    0.000000    0.000000    0.000000
     7        -0.437103337884694    2.141e-04    0.013599    0.000000    0.000000    0.000000
     8        -0.437104268826663    6.664e-05    0.013594    0.000000    0.000000    0.000000
     9        -0.437104951862272    2.381e-05    0.013594    0.000000    0.000000    0.000000
    10        -0.437104054759767    9.202e-06    0.013593    0.000000    0.000000    0.000000
    11        -0.437104219767787    3.997e-06    0.013593    0.000000    0.000000    0.000000
    12        -0.437104180444206    1.446e-06    0.013593    0.000000    0.000000    0.000000
    13        -0.437104188363553    7.304e-07    0.013593    0.000000    0.000000    0.000000
    14        -0.437104210993983    3.045e-07    0.013593    0.000000    0.000000    0.000000
    15        -0.437104212719715    1.106e-07    0.013593    0.000000    0.000000    0.000000
    16        -0.437104213304576    4.955e-08    0.013593    0.000000    0.000000    0.000000
    17        -0.437104213880727    1.907e-08    0.013593    0.000000    0.000000    0.000000
    18        -0.437104213739203    9.914e-09    0.013593    0.000000    0.000000    0.000000
    19        -0.437104213531201    3.912e-09    0.013593    0.000000    0.000000    0.000000
    20        -0.437104213520355    2.115e-09    0.013593    0.000000    0.000000    0.000000
    21        -0.437104213497324    8.075e-10    0.013593    0.000000    0.000000    0.000000
    22        -0.437104213495816    3.249e-10    0.013593    0.000000    0.000000    0.000000
    23        -0.437104213494908    1.688e-10    0.013593    0.000000    0.000000    0.000000
    24        -0.437104213494750    6.926e-11    0.013593    0.000000    0.000000    0.000000

    Iterations converged.


    Largest TIA Amplitudes:
              5  65        -0.0133007726
              5  67        -0.0111557194
              7  94         0.0103807550
              5  66        -0.0096740532
              4  65        -0.0074600609
              3   1         0.0074030658
              2   3         0.0072183399
              4  66         0.0071679148
              3   5        -0.0055749776
              3   6         0.0053972759

    Largest Tia Amplitudes:
              3  67        -0.0147780335
              2   2         0.0134333906
              3  69        -0.0107685565
              5  96         0.0079679412
              3  66        -0.0076746003
              2   1        -0.0068266679
              2   7         0.0056177706
              2   6        -0.0055522372
              1  25        -0.0054353954
              4 109         0.0053707308

    Largest TIJAB Amplitudes:
      7   4 100  71         0.0142679604
      7   4  55  23        -0.0135865336
      7   2 100  12        -0.0121831971
      4   2  71  12         0.0110645614
      6   5  50   9        -0.0086623871
      7   4  49  23         0.0082512901
      6   5  97  72        -0.0080548205
      7   4  94  71         0.0078508561
      7   4  55   8        -0.0076452836
      7   4 100  82        -0.0073070709

    Largest Tijab Amplitudes:
      5   1  66  56         0.0086738784
      5   1  66  50        -0.0085708831
      5   1  68  56         0.0081616806
      4   3  99  67        -0.0076331343
      5   1  68  50        -0.0074576487
      4   3  99  73        -0.0072940592
      4   2  99   2         0.0071671273
      4   2  99  12         0.0068695453
      4   2 100   9        -0.0067047135
      4   3  51  10        -0.0065801017

    Largest TIjAb Amplitudes:
      7   5 100 103        -0.0217609543
      6   4  97  99        -0.0217327843
      7   5 100 102         0.0190240152
      7   1  55  66        -0.0180595123
      7   5 100  96        -0.0170805510
      7   1  55  68        -0.0168446842
      4   1  23  66        -0.0166759886
      5   3  72  73        -0.0161817177
      4   1  23  68        -0.0155125688
      7   5  55  56        -0.0145626912

    SCF energy       (wfn)                    = -150.873629030400338
    Reference energy (file100)                = -150.873629030401446

    Opposite-spin MP2 correlation energy      =   -0.314347073261392
    Same-spin MP2 correlation energy          =   -0.101817948159907
    MP2 correlation energy                    =   -0.416165021421299
      * MP2 total energy                      = -151.289794051822753

    Opposite-spin CCSD correlation energy     =   -0.341999452752078
    Same-spin CCSD correlation energy         =   -0.095104760742671
    CCSD correlation energy                   =   -0.437104213494750
      * CCSD total energy                     = -151.310733243896209

            **************************
            *                        *
            *        CCTRIPLES       *
            *                        *
            **************************


    Wave function   =    CCSD_T
    Reference wfn   =      UHF

    Nuclear Rep. energy (wfn)                =   23.843651786165147
    SCF energy          (wfn)                = -150.873629030400338
    Reference energy    (file100)            = -150.873629030401446
    CCSD energy         (file100)            =   -0.437104213494750
    Total CCSD energy   (file100)            = -151.310733243896209

    Number of ijk index combinations:
    Spin Case AAA:                                  56
    Spin Case BBB:                                  20
    Spin Case AAB:                                 168
    Spin Case ABB:                                 120
    AAA (T) energy                             =   -0.000395560017634
    BBB (T) energy                             =   -0.000201983736646
    AAB (T) energy                             =   -0.006703083514884
    ABB (T) energy                             =   -0.004978337865628
    (T) energy                                   =   -0.012278965134792
      * CCSD(T) total energy                     = -151.323012209030992

Stephenergy -151.323012209031
    Psi4 stopped on: Monday, 08 March 2021 05:38PM
    Psi4 wall time for execution: 0:01:22.02

*** Psi4 exiting successfully. Buy a developer a beer!
