 --invoking executable--
/apps/eb/cfour/2.1-iompi-2018a-serial/bin/xjoda


   *************************************************************************
         <<<     CCCCCC     CCCCCC   |||     CCCCCC     CCCCCC   >>>
       <<<      CCC        CCC       |||    CCC        CCC         >>>
      <<<      CCC        CCC        |||   CCC        CCC            >>>
    <<<        CCC        CCC        |||   CCC        CCC              >>>
      <<<      CCC        CCC        |||   CCC        CCC            >>>
       <<<      CCC        CCC       |||    CCC        CCC         >>>
         <<<     CCCCCC     CCCCCC   |||     CCCCCC     CCCCCC   >>>
   *************************************************************************

     ****************************************************************
     * CFOUR Coupled-Cluster techniques for Computational Chemistry *
     ****************************************************************
 

   Department of Chemistry                Institut fuer Physikalische Chemie
   University of Florida                  Universitaet Mainz
   Gainesville, FL 32611, USA             D-55099 Mainz, Germany

   Department of Chemistry                Fakultaet fuer Chemie und Biowiss.
   Johns Hopkins University               Karlsruher Institut fuer Technologie
   Baltimore, MD 21218, USA               D-76131 Karlsruhe, Germany

   Department of Chemistry                Department of Physical Chemistry
   Southern Methodist University          Eotvos Lorand University
   Dallas, TX 75275, USA                  H-1053 Budapest, Hungary

 
                       Version 2.1
 
                     c1-1.compute.lan                                  
                     Thu Jan 28 14:13:59 EST 2021                      
                     integer*8 version is running
 
********************************************************************************
*                          Input from ZMAT file                                *
********************************************************************************
CFOUR Optimization JOB                                                          
O    0.000000000000    0.000000000000    0.000000000000                         
H    0.000000000000   -0.968617684900    0.000000000000                         
O    1.894652568000   -0.266095416100    0.000000000000                         
H    1.894652568000    0.702522268800    0.000000000000                         
                                                                                
*CFOUR(CALC=CCSDT                                                               
       BASIS=AUG-PVTZ                                                           
       SCF_CONV=12                                                              
       CC_CONV=12                                                               
       SCF_MAXCYC=200                                                           
       CC_MAXCYC=150                                                            
       CC_PROGRAM=MRCC                                                          
       DERIV_LEVEL=1                                                            
       FROZEN_CORE=ON                                                           
       LINEQ_CONV=12                                                            
       OPT_MAXCYC=400                                                           
       REFERENCE=UHF                                                            
       MULTIPLICITY=3                                                           
       COORDINATES=CARTESIAN                                                    
       MEMORY=40                                                                
       MEM_UNIT=GB                                                              
       UNITS=ANGSTROM)                                                          
********************************************************************************
    -------------------------------------------------------------------
                    CFOUR Control Parameters 
    -------------------------------------------------------------------
        External           Internal           Value            Units
          Name               Name
    -------------------------------------------------------------------
       ABCDTYPE             IABCDT         STANDARD    [  0]    ***   
       ANHARMONIC           IANHAR         OFF         [  0]    ***   
       ANH_ALGORIT          IANALG         STANDARD    [  0]    ***   
       ANH_DERIVAT          IANDER         SECOND      [  1]    ***   
       ANH_MODE             ANHMOD         VIBRATION   [  0]    ***   
       ANH_STEPSIZ          ICUBST             50000          x 10-6  
       ANH_SYMMETR          IANHSM         ABELIAN     [  0]    ***   
       AO_LADDERS           IAOLAD         SINGLEPASS  [  1]    ***   
       AV_SCF               IAVSCF         OFF         [  0]    ***   
       BASIS                IBASIS         AUG-PVTZ    [ 34]    ***   
       BOTHVECTORS          BOTHVC         OFF         [  0]    ***   
       BOX_POTENT           IPIAB          OFF         [  0]    ***   
       BREIT                IBREIT         OFF         [  0]    ***   
       BRUCK_CONV           IBRTOL          10D-  4             ***   
       BRUECKNER            IBRKNR         OFF         [  0]    ***   
       BUFFERSIZE           IBUFFS              4096            ***   
       CACHE_RECS           ICHREC             10               ***   
       CALCLEVEL            ICLLVL         CCSDT       [ 18]    ***   
       CCORBOPT             ICCORB         OFF         [  0]  x 0.01  
       CC_CONV              ICCCNV          10D- 12             ***   
       CC_EXPORDER          ICCEOR              5               ***   
       CC_EXTRAPOL          ICCEXT         DIIS        [  1]    ***   
       CC_GUESS             ICCGES         MP2         [  0]    ***   
       CC_MAXCYC            ICCCYC            150              cycles 
       CC_PROGRAM           ICCPRO         MRCC        [  2]    ***   
       CHARGE               ICHRGE              0               ***   
       CHOLESKY             ICHOLE         OFF         [  0]    ***   
       CIS_CONV             ICISTL              5               ***   
       COMM_SIZE            IPSIZE            ***               ***   
       CONSTANT             ICONST         OLD         [  1]    ***   
       CONTINUUM            ICONTU         NONE        [  0]    ***   
       CONTRACTION          ICNTYP         GENERAL     [  1]    ***   
       COORDINATES          ICOORD         CARTESIAN   [  1]    ***   
       CPHF_CONVER          ICPHFT          10D- 16             ***   
       CPHF_MAXCYC          ICPHFC             64              cycles 
       CUBIC                ICUBIC         OFF         [  0]    ***   
       CURVILINEAR          ICURVY         OFF         [  0]    ***   
       DBOC                 IDBOC          OFF         [  0]    ***   
       DCT                  IDCT           OFF         [  0]    ***   
       DERIV_LEV            IDRLVL         FIRST       [  1]    ***   
       DEVMEM_SIZE          IDVMEM         *********           MByte  
       DIAG_MRCC            IEOMST          10D-  0             ***   
       DIFF_TYPE            IDIFTY         RELAXED     [  0]    ***   
       DIRECT               IDIRCT         OFF         [  0]    ***   
       DROPMO               IDRPMO      NONE         
       ECP                  IECP           OFF         [  0]    ***   
       EIGENVECTOR          IVEC                1               ***   
       EL_ANHARM            IELANH         OFF         [  0]    ***   
       EOMFOLLOW            IEOMSR         ENERGY      [  0]    ***   
       EOMIP                IEOMIP         OFF         [  0]    ***   
       EOMLEVEL             HBARFM         SAME        [  0]    ***   
       EOM_MRCC             IMRCCE         NEW         [  1]    ***   
       EOM_NONIT            EOMNON         OFF         [  0]    ***   
       EOM_NSING            IEOMSI          10D-  0             ***   
       EOM_NSTATES          IMRCCD         DAVIDSON    [  0]    ***   
       EOM_NTRIP            IEOMTR          10D-  0             ***   
       EOM_ORDER            IEXORD         ENERGY      [  0]    ***   
       EOM_PROPSTA          IEOMST              0               ***   
       ESTATE_CONV          IEXTOL          10D-  5             ***   
       ESTATE_DIAG          IEXDIG         ITERATIVE   [  0]    ***   
       ESTATE_LOCK          IESLOC         ON          [  1]    ***   
       ESTATE_MAXC          IEXMXC             40               ***   
       ESTATE_PROP          IEXPRP         OFF         [  0]    ***   
       EVAL_HESS            IRECAL              0            # of cyc.
       EXCITATION           IEXCIT              0               ***   
       EXCITE               IEXCIT         NONE        [  0]    ***   
       EXTERN_POT           IEXPOT         OFF         [  0]    ***   
       FCGRADNEW            IFCGNW         OFF         [  0]    ***   
       FC_FIELD             IFINFC              0             x 10-6  
       FD_CALTYPE           IFDCAL         GRADONLY    [  0]    ***   
       FD_PROJECT           IFDPRJ         OFF         [  1]    ***   
       FD_STEPSIZE          IDISFD              0            10-4 bohr
       FD_USEGROUP          IFDGRP         FULL        [  0]    ***   
       FILE_RECSIZ          IFLREC              4096           words  
       FINITE_PERT          IFIPER              0             x 10-6  
       FIXGEOM              IFIXGM         OFF         [  0]    ***   
       FOCK                 IFOCK          AO          [  1]    ***   
       FREQ_ALGORI          IVIALG         STANDARD    [  0]    ***   
       FROZEN_CORE          IFROCO         ON          [  1]    ***   
       GAMMA_ABCD           IGABCD         STORE       [  0]    ***   
       GAMMA_ABCI           IGABCI         STORE       [  0]    ***   
       GENBAS_1             IGNBS1              0               ***   
       GENBAS_2             IGNBS2              0               ***   
       GENBAS_3             IGNBS3              0               ***   
       GENBAS_4             IGNBS4              0               ***   
       GEO_CONV             ICONTL              5              H/bohr 
       GEO_MAXCYC           IOPTCY            400               ***   
       GEO_MAXSTEP          IMXSTP            300            millibohr
       GEO_METHOD           INR            SINGLE_POINT[  5]    ***   
       GIAO                 IGIAO          OFF         [  1]    ***   
       GIMIC                IGIMIC         OFF         [  0]    ***   
       GRID                 IGRID          OFF         [  0]    ***   
       GRID_ALGO            IGALGO         SERIAL      [  0]    ***   
       GUESS                IGUESS         MOREAD      [  0]    ***   
       HBAR                 IHBAR          OFF         [  0]    ***   
       HESS_TYPE            IHESTP         SCF         [  0]    ***   
       HF2_FILE             IHF2Fl         USE         [  1]    ***   
       HFSTABILITY          ISTABL         OFF         [  0]    ***   
       INCORE               INCORE         OFF         [  0]    ***   
       INPUT_MRCC           IMRCC          ON          [  1]    ***   
       INTEGRALS            INTTYP         VMOL        [  1]    ***   
       JODA_PRINT           IJPRNT              0               ***   
       KEYWORD_OUT          IDMPKW         NO          [  0]    ***   
       LINDEP_TOL           ILINDP              8               ***   
       LINEQ_CONV           IZTACN          10D- 12           cycles  
       LINEQ_EXPOR          ILMAXD              5               ***   
       LINEQ_MAXCY          ILMAXC            100               ***   
       LINEQ_TYPE           ILTYPE         DIIS        [  1]    ***   
       LOCK_ORBOCC          ILOCOC         OFF         [  0]    ***   
       MEMORY_SIZE          IMEMSZ         *********           words  
       MEM_UNIT             IMEMU          GB          [  3]    ***   
       MRCC                 IMRCCC         OFF         [  0]    ***   
       MULTIPLICTY          IMULTP              3               ***   
       NACOUPLING           IVCOUP         OFF         [  0]    ***   
       NEGEVAL              IDIE           ABORT       [  0]    ***   
       NEWNORM              INEWNO         OFF         [  0]    ***   
       NON-HF               INONHF         OFF         [  0]    ***   
       NTOP_TAMP            ITOPT2             15               ***   
       NUC_MODEL            INUCMO         POINT       [  0]    ***   
       OCCUPATION           IOCCU   ESTIMATED BY SCF 
       OPEN-SHELL           IOPEN          SPIN-ORBITAL[  0]    ***   
       OPTVIB               IOPTVB         OFF         [  0]    ***   
       ORBITALS             IORBTP         STANDARD    [  0]    ***   
       PARALLEL             IPARAL         ON          [  1]    ***   
       PARA_INT             IPINTS         ON          [  1]    ***   
       PARA_PRINT           IPPRIN              0               ***   
       PERT_ORB             IPTORB         CANONICAL   [  1]    ***   
       POINTS               IGRDFD              0               ***   
       PRINT                IPRNT               0               ***   
       PROPS                IPROPS         OFF         [  0]    ***   
       PROP_INTEGR          IINTYP         INTERNAL    [  0]    ***   
       PSI                  IPSI           OFF         [  0]    ***   
       QC_ALG               IQCALG         FLM         [  0]    ***   
       QC_LINALG            IQCLIN         TRIDIAG     [  2]    ***   
       QC_MAXCYC            IQCMAX          10D-100           cycles  
       QC_MAXSCFCY          IQCMSC          10D- 15           cycles  
       QC_RTRUST            IQCRTR          10D-  0           x 10-3  
       QC_SKIPSCF           IQCSKI         OFF         [  0]    ***   
       QC_START             IQCSTA          10D-  1             ***   
       QRHFGUESS            IQGUES         OFF         [  0]    ***   
       QUARTIC              IQUART         OFF         [  0]    ***   
       RAMAN_INT            IRAMIN         OFF         [  0]    ***   
       RAMAN_ORB            IRAMRE         UNRELAXED   [  0]    ***   
       RDO                  IRDOFM         ON          [  1]    ***   
       REDUCE_REPR          REDREP         Ir          [  0]    ***   
       REFERENCE            IREFNC         UHF         [  1]    ***   
       RELATIVIST           IRELAT         OFF         [  0]    ***   
       RELAX_DENS           IRDENS         ON          [  1]    ***   
       RESET_FLAGS          IRESET         OFF         [  0]    ***   
       RESTART_CC           ICCRES         OFF         [  0]    ***   
       ROT_EVEC             ROTVEC              0               ***   
       SAVE_INTS            ISVINT         OFF         [  0]    ***   
       SCALE_ON             ISTCRT              0               ***   
       SCF_CONV             ISCFCV          10D- 12             ***   
       SCF_DAMPING          IDAMP               0             x 10-3  
       SCF_EXPORDE          IRPPOR              6               ***   
       SCF_EXPSTAR          IRPPLS              8               ***   
       SCF_EXTRAPO          IRPP           ON          [  1]    ***   
       SCF_MAXCYC           ISCFCY            200              cycles 
       SCF_NOSTOP           ISCFST         OFF         [  0]    ***   
       SCF_PRINT            ISCFPR              0               ***   
       SCF_PROG             ISCFPR         SCF         [  0]    ***   
       SD_FIELD             IFINSD              0             x 10-6  
       SOPERT               IPERSO         OFF         [  0]    ***   
       SPHERICAL            IDFGHI         ON          [  1]    ***   
       SPINORBIT            ISOCAL         OFF         [  0]    ***   
       SPINROTATIO          ISRCON         OFF         [  0]    ***   
       SPIN_FLIP            ISPFLP         OFF         [  0]    ***   
       SPIN_ORBIT           ISPORB         OFF         [  0]    ***   
       SPIN_SCAL            ISCSMP         OFF         [  0]    ***   
       STEEPSCALE           ISTPSC              1000          x 10-3  
       SUBGROUP             ISUBGP         DEFAULT     [  0]    ***   
       SUBGRPAXIS           ISBXYZ         X           [  0]    ***   
       SYMMETRY             ISYM           ON          [  0]    ***   
       SYM_CHECK            ISYMCK         OVERRIDE    [  1]    ***   
       T3_EXTRAPOL          IT3EXT         OFF         [  0]    ***   
       T4_EXTRAPOL          IT4EXP         OFF         [  0]    ***   
       TAMP_SUM             IEVERY              5               ***   
       TESTSUITE            ITESTS         OFF         [  0]    ***   
       THERMOCH             ITHERM         OFF         [  0]    ***   
       TOL_CHOLESK          ITOLCH          10D-  4             ***   
       TRANGRAD             IRESRM         OFF         [  0]    ***   
       TRANS_INV            ITRAIN         USE         [  0]    ***   
       TREAT_PERT           ITREAT         SIMULTANEOUS[  0]    ***   
       TRIP_ALGORI          ITRALG         NORMAL      [  0]    ***   
       UIJ_THRESHO          IUIJTH              1               ***   
       UNITS                IUNITS         ANGSTROM    [  0]    ***   
       UNOS                 IUNOS          OFF         [  0]    ***   
       UPDATE_HESS          IHUPDT         ON          [  1]    ***   
       VIBPHASE             ISETPH         STANDARD    [  0]    ***   
       VIBRATION            IVIB           NO          [  0]    ***   
       VIB_ALGORIT          IGEALG         STANDARD    [  0]    ***   
       VNATORB              IVNORB         OFF         [  0]    ***   
       VTRAN                IVTRAN         FULL/PARTIAL[  0]    ***   
       XFIELD               IXEFLD              0             x 10-6  
       XFORM_TOL            IXFTOL          10D- 11             ***   
       YFIELD               IYEFLD              0             x 10-6  
       ZFIELD               IZEFLD              0             x 10-6  
       ZSCALE_EXP           IZEXPS         OFF         [  0]    ***   
    -------------------------------------------------------------------
  @GETXYZ-I,     4 atoms read from ZMAT.
   Rotational constants (in cm-1): 
          0.5188401381             0.5486809968             9.5398636773
   Rotational constants (in MHz): 
      15554.4382104497         16449.0447741371        285997.9581478238
********************************************************************************
   The full molecular point group is C2h .
   The largest Abelian subgroup of the full molecular point group is C2h .
   The computational point group is C2h .
********************************************************************************


 ----------------------------------------------------------------
         Coordinates used in calculation (QCOMP) 
 ----------------------------------------------------------------
 Z-matrix   Atomic            Coordinates (in bohr)
  Symbol    Number           X              Y              Z
 ----------------------------------------------------------------
     O         8        -1.80502463     0.09935616     0.00000000
     H         1        -1.65045746    -1.72452860     0.00000000
     O         8         1.80502463    -0.09935616     0.00000000
     H         1         1.65045746     1.72452860     0.00000000
 ----------------------------------------------------------------
 
   Interatomic distance matrix (Angstroms) 
 
                 O             H             O             H    
                [ 1]        [ 2]        [ 3]        [ 4]
  O    [ 1]     0.00000
  H    [ 2]     0.96862     0.00000
  O    [ 3]     1.91325     2.02070     0.00000
  H    [ 4]     2.02070     2.52635     0.96862     0.00000
 rotcon2
   Rotational constants (in cm-1): 
          9.5398636773             0.5486809968             0.5188401381
   Rotational constants (in MHz): 
     285997.9581478242         16449.0447741371         15554.4382104497
  There are   2 frozen-core orbitals.
  There are   2 frozen-core orbitals.
  There are  138 basis functions.
 @CHECKOUT-I, Total execution time (CPU/WALL):        0.16/       0.21 seconds.
--executable xjoda finished with status     0 in        0.24 seconds (walltime).
 --invoking executable--
/apps/eb/cfour/2.1-iompi-2018a-serial/bin/xvmol
 SERIAL VERSION OF MOLECULE STARTED
********************************************************************************
                    INPUT FROM MOL FILE
********************************************************************************
INTGRL        1    0    1    0    0    0    0    0    0                         
         *** CFOUR Program System (Release V0.1) ***                            
CFOUR Optimization JOB                                                          
    2    2 Z  XY      0.10E-08              0    0                              
   9999.00      3.00                                                            
          8.00000000    1    4    1    1    1    1                              
O #1  -1.805024632377228   0.099356164276991   0.000000000000000                
   11    5                                                                      
   15330.0000000000       5.080000000000000E-004 -1.150000000000000E-004        
  0.000000000000000E+000  0.000000000000000E+000  0.000000000000000E+000        
   2299.00000000000       3.929000000000000E-003 -8.950000000000000E-004        
  0.000000000000000E+000  0.000000000000000E+000  0.000000000000000E+000        
   522.400000000000       2.024300000000000E-002 -4.636000000000000E-003        
  0.000000000000000E+000  0.000000000000000E+000  0.000000000000000E+000        
   147.300000000000       7.918100000000000E-002 -1.872400000000000E-002        
  0.000000000000000E+000  0.000000000000000E+000  0.000000000000000E+000        
   47.5500000000000       0.230687000000000      -5.846300000000000E-002        
  0.000000000000000E+000  0.000000000000000E+000  0.000000000000000E+000        
   16.7600000000000       0.433118000000000      -0.136463000000000             
  0.000000000000000E+000  0.000000000000000E+000  0.000000000000000E+000        
   6.20700000000000       0.350260000000000      -0.175740000000000             
  0.000000000000000E+000  0.000000000000000E+000  0.000000000000000E+000        
   1.75200000000000       4.272800000000000E-002  0.160934000000000             
   1.00000000000000       0.000000000000000E+000  0.000000000000000E+000        
  0.688200000000000      -8.154000000000000E-003  0.603418000000000             
  0.000000000000000E+000  0.000000000000000E+000  0.000000000000000E+000        
  0.238400000000000       2.381000000000000E-003  0.378765000000000             
  0.000000000000000E+000   1.00000000000000       0.000000000000000E+000        
  7.376000000000001E-002  0.000000000000000E+000  0.000000000000000E+000        
  0.000000000000000E+000  0.000000000000000E+000   1.00000000000000             
    6    4                                                                      
   34.4600000000000       1.592800000000000E-002  0.000000000000000E+000        
  0.000000000000000E+000  0.000000000000000E+000                                
   7.74900000000000       9.974000000000000E-002  0.000000000000000E+000        
  0.000000000000000E+000  0.000000000000000E+000                                
   2.28000000000000       0.310492000000000       0.000000000000000E+000        
  0.000000000000000E+000  0.000000000000000E+000                                
  0.715600000000000       0.491026000000000        1.00000000000000             
  0.000000000000000E+000  0.000000000000000E+000                                
  0.214000000000000       0.336337000000000       0.000000000000000E+000        
   1.00000000000000       0.000000000000000E+000                                
  5.974000000000000E-002  0.000000000000000E+000  0.000000000000000E+000        
  0.000000000000000E+000   1.00000000000000                                     
    3    3                                                                      
   2.31400000000000        1.00000000000000       0.000000000000000E+000        
  0.000000000000000E+000                                                        
  0.645000000000000       0.000000000000000E+000   1.00000000000000             
  0.000000000000000E+000                                                        
  0.214000000000000       0.000000000000000E+000  0.000000000000000E+000        
   1.00000000000000                                                             
    2    2                                                                      
   1.42800000000000        1.00000000000000       0.000000000000000E+000        
  0.500000000000000       0.000000000000000E+000   1.00000000000000             
          1.00000000    1    3    1    1    1                                   
H #2  -1.650457455581581  -1.724528595568102   0.000000000000000                
    6    4                                                                      
   33.8700000000000       6.068000000000000E-003  0.000000000000000E+000        
  0.000000000000000E+000  0.000000000000000E+000                                
   5.09500000000000       4.530800000000000E-002  0.000000000000000E+000        
  0.000000000000000E+000  0.000000000000000E+000                                
   1.15900000000000       0.202822000000000       0.000000000000000E+000        
  0.000000000000000E+000  0.000000000000000E+000                                
  0.325800000000000       0.503903000000000        1.00000000000000             
  0.000000000000000E+000  0.000000000000000E+000                                
  0.102700000000000       0.383421000000000       0.000000000000000E+000        
   1.00000000000000       0.000000000000000E+000                                
  2.526000000000000E-002  0.000000000000000E+000  0.000000000000000E+000        
  0.000000000000000E+000   1.00000000000000                                     
    3    3                                                                      
   1.40700000000000        1.00000000000000       0.000000000000000E+000        
  0.000000000000000E+000                                                        
  0.388000000000000       0.000000000000000E+000   1.00000000000000             
  0.000000000000000E+000                                                        
  0.102000000000000       0.000000000000000E+000  0.000000000000000E+000        
   1.00000000000000                                                             
    2    2                                                                      
   1.05700000000000        1.00000000000000       0.000000000000000E+000        
  0.247000000000000       0.000000000000000E+000   1.00000000000000             
FINISH                                                                          
 
********************************************************************************
 ONE- AND TWO-ELECTRON INTEGRALS OVER SYMMETRY-ADAPTED AOS ARE CALCULATED.

  SPHERICAL HARMONICS ARE USED.
  
  INTEGRALS LESS THAN  0.10E-13 ARE NEGLECTED.

  NUCLEAR REPULSION ENERGY :   30.8421491929 A.U.
  @MOLECU-I, ONE ELECTRON INTEGRALS (CPU/WALL):        0.03/       0.03 SECONDS.
  @TWOEL-I,    1246094 INTEGRALS OF SYMMETRY TYPE  I I I I
  @TWOEL-I,    4620815 INTEGRALS OF SYMMETRY TYPE  I J I J
  @TWOEL-I,    2438161 INTEGRALS OF SYMMETRY TYPE  I I J J
  @TWOEL-I,    3358092 INTEGRALS OF SYMMETRY TYPE  I J K L
  @TWOEL-I, TOTAL NUMBER OF 2-E INTEGRALS   11663162.
  @MOLECU-I, TWO ELECTRON INTEGRALS (CPU/WALL):        2.92/       3.09 SECONDS.
 @CHECKOUT-I, Total execution time (CPU/WALL):        2.96/       3.13 seconds.

Running with 12 threads/proc

--executable xvmol finished with status     0 in        3.18 seconds (walltime).
 --invoking executable--
/apps/eb/cfour/2.1-iompi-2018a-serial/bin/xvmol2ja
 @GETMEM-I,  Allocated   38146 MB of main memory.
 @CHECKOUT-I, Total execution time (CPU/WALL):        0.01/       0.01 seconds.
--executable xvmol2ja finished with status     0 in        0.06 seconds (walltime).
 --invoking executable--
/apps/eb/cfour/2.1-iompi-2018a-serial/bin/xvscf
  There are  138 functions in the AO basis.

  There are 4 irreducible representations.

       Irrep        # of functions
         1                 46
         2                 23
         3                 46
         4                 23


  Parameters for SCF calculation: 
        SCF reference function:  UHF  
  Maximum number of iterations:  200
     Full symmetry point group: C2h 
     Computational point group: C2h 
        Initial density matrix: CORE                   
     SCF convergence tolerance: 10**(-12)
  DIIS convergence acceleration:  ON
          Latest start for DIIS:   8
                     DIIS order:   6

  Memory information:     904766 words required.
  Fock matrices are constructed from AO integral file.
 @GETMEM-I,  Allocated       6 MB of main memory.
  Initialization and symmetry analysis required      0.002 seconds.

  @INITGES-I, Occupancies from core Hamiltonian:

          Alpha population by irrep:   4    1    4    1
           Beta population by irrep:   3    1    3    1


 total no. of electrons in initial guess :  0.000000000000000E+000
 total no. of electrons in initial guess :  0.000000000000000E+000
  --------------------------------------------------------------------
  Iteration         Total Energy            Largest Density Difference
  --------------------------------------------------------------------
       0            30.842149192936375              0.0000000000D+00
   current occupation vector 
     4  1  4  1
     3  1  3  1
       1          -128.383123509781853              0.3033240316D+01
   current occupation vector 
     4  1  4  1
     3  1  3  1
       2          -127.956769657883086              0.2272515494D+02
   current occupation vector 
     5  1  4  0
     3  1  4  0
       3          -144.366263436390540              0.2274500246D+02
   current occupation vector 
     4  1  4  1
     3  1  3  1
       4          -139.301679587572806              0.1017841476D+02
   current occupation vector 
     5  1  4  0
     4  0  4  0
       5          -147.156626633713813              0.1017651699D+02
   current occupation vector 
     4  1  4  1
     3  1  3  1
       6          -144.460220090154309              0.5497781902D+01
   current occupation vector 
     5  1  4  0
     4  0  4  0
       7          -148.573676017747204              0.5497693304D+01
   current occupation vector 
     4  1  4  1
     4  1  3  0
       8          -147.563678129590102              0.5355531364D+01
   current occupation vector 
     5  1  3  1
     4  0  4  0
       9          -150.653851793417488              0.5355625032D+01
   current occupation vector 
     4  1  4  1
     4  1  3  0
      10          -150.738841869323238              0.9042754007D-01
   current occupation vector 
     4  1  4  1
     4  1  3  0
      11          -150.752625694848433              0.4176924770D-01
   current occupation vector 
     4  1  4  1
     4  1  3  0
      12          -150.755007565346261              0.1411791768D-01
   current occupation vector 
     4  1  4  1
     4  1  3  0
      13          -150.755415544020622              0.8412350367D-02
   current occupation vector 
     4  1  4  1
     4  1  3  0
      14          -150.755432962117254              0.1351327447D-02
   current occupation vector 
     4  1  4  1
     4  1  3  0
      15          -150.755437715562323              0.6782325743D-03
   current occupation vector 
     4  1  4  1
     4  1  3  0
      16          -150.755438418020560              0.2907853075D-03
   current occupation vector 
     4  1  4  1
     4  1  3  0
      17          -150.755438508022110              0.1303422041D-03
   current occupation vector 
     4  1  4  1
     4  1  3  0
      18          -150.755438517120979              0.3837063071D-04
   current occupation vector 
     4  1  4  1
     4  1  3  0
      19          -150.755438519103762              0.1750367847D-04
   current occupation vector 
     4  1  4  1
     4  1  3  0
      20          -150.755438519828203              0.1169494856D-04
   current occupation vector 
     4  1  4  1
     4  1  3  0
      21          -150.755438520026502              0.7448422946D-05
   current occupation vector 
     4  1  4  1
     4  1  3  0
      22          -150.755438520048330              0.2374964153D-05
   current occupation vector 
     4  1  4  1
     4  1  3  0
      23          -150.755438520051683              0.1046797995D-05
   current occupation vector 
     4  1  4  1
     4  1  3  0
      24          -150.755438520051143              0.2896038435D-06
   current occupation vector 
     4  1  4  1
     4  1  3  0
      25          -150.755438520049552              0.5010915249D-07
   current occupation vector 
     4  1  4  1
     4  1  3  0
      26          -150.755438520050120              0.2929269383D-08
   current occupation vector 
     4  1  4  1
     4  1  3  0
      27          -150.755438520049779              0.3416357641D-08
   current occupation vector 
     4  1  4  1
     4  1  3  0
      28          -150.755438520052081              0.6672079451D-09
   current occupation vector 
     4  1  4  1
     4  1  3  0
      29          -150.755438520052223              0.4970543976D-09
   current occupation vector 
     4  1  4  1
     4  1  3  0
      30          -150.755438520051399              0.3849154329D-09
   current occupation vector 
     4  1  4  1
     4  1  3  0
      31          -150.755438520051655              0.3127113568D-09
   current occupation vector 
     4  1  4  1
     4  1  3  0
      32          -150.755438520052081              0.1178597220D-09
   current occupation vector 
     4  1  4  1
     4  1  3  0
      33          -150.755438520051825              0.2499517260D-10
   current occupation vector 
     4  1  4  1
     4  1  3  0
      34          -150.755438520051058              0.6742009728D-11
   current occupation vector 
     4  1  4  1
     4  1  3  0
      35          -150.755438520051030              0.2939204435D-11
   current occupation vector 
     4  1  4  1
     4  1  3  0
      36          -150.755438520051484              0.3691082162D-11
   current occupation vector 
     4  1  4  1
     4  1  3  0
      37          -150.755438520050831              0.2435489310D-11
   current occupation vector 
     4  1  4  1
     4  1  3  0
      38          -150.755438520051598              0.8901414328D-11
   current occupation vector 
     4  1  4  1
     4  1  3  0
      39          -150.755438520051854              0.2630555496D-11
   current occupation vector 
     4  1  4  1
     4  1  3  0
      40          -150.755438520050831              0.5153096699D-11
   current occupation vector 
     4  1  4  1
     4  1  3  0
      41          -150.755438520052877              0.2977500191D-11
   current occupation vector 
     4  1  4  1
     4  1  3  0
      42          -150.755438520051797              0.2160129714D-11
   current occupation vector 
     4  1  4  1
     4  1  3  0
      43          -150.755438520051996              0.4134789733D-11
   current occupation vector 
     4  1  4  1
     4  1  3  0
      44          -150.755438520051911              0.1701500052D-11
   current occupation vector 
     4  1  4  1
     4  1  3  0
      45          -150.755438520051428              0.2590514608D-11
   current occupation vector 
     4  1  4  1
     4  1  3  0
      46          -150.755438520051598              0.3515177732D-11
   current occupation vector 
     4  1  4  1
     4  1  3  0
      47          -150.755438520051598              0.1914496339D-11
   current occupation vector 
     4  1  4  1
     4  1  3  0
      48          -150.755438520052309              0.2680369815D-11
   current occupation vector 
     4  1  4  1
     4  1  3  0
      49          -150.755438520051456              0.3727714318D-11
   current occupation vector 
     4  1  4  1
     4  1  3  0
      50          -150.755438520051143              0.5515254919D-11
   current occupation vector 
     4  1  4  1
     4  1  3  0
      51          -150.755438520051257              0.9261627923D-11
   current occupation vector 
     4  1  4  1
     4  1  3  0
      52          -150.755438520052962              0.1307814967D-11
   current occupation vector 
     4  1  4  1
     4  1  3  0
      53          -150.755438520052081              0.1532602170D-11
   current occupation vector 
     4  1  4  1
     4  1  3  0
      54          -150.755438520051968              0.1568460639D-11
   current occupation vector 
     4  1  4  1
     4  1  3  0
      55          -150.755438520051712              0.5382333468D-11
   current occupation vector 
     4  1  4  1
     4  1  3  0
      56          -150.755438520051086              0.1553468465D-10
   current occupation vector 
     4  1  4  1
     4  1  3  0
      57          -150.755438520051740              0.9196934880D-11
   current occupation vector 
     4  1  4  1
     4  1  3  0
      58          -150.755438520051456              0.1141446659D-10
   current occupation vector 
     4  1  4  1
     4  1  3  0
      59          -150.755438520052081              0.4283975952D-11
   current occupation vector 
     4  1  4  1
     4  1  3  0

  SCF has converged.

 Density matrix saved to file den.dat
 total alpha spin electron number:   9.99999999999999     
 total  beta spin electron number:   7.99999999999997     
     E(SCF)=      -150.755438520051825              0.7333508800D-12


  Final occupancies:

     Alpha population by irrep:   4    1    4    1
      Beta population by irrep:   4    1    3    0


  Eigenvector printing suppressed.


       The average multiplicity is    3.0747588
  The expectation value of S**2 is    2.1135354

 @PUTMOS-I, Writing converged MOs to NEWMOS. 
 @PUTMOS-I, Symmetry   1 Full Blocks 11 Partial Blocksize   2
 @PUTMOS-I, Symmetry   2 Full Blocks  5 Partial Blocksize   3
 @PUTMOS-I, Symmetry   3 Full Blocks 11 Partial Blocksize   2
 @PUTMOS-I, Symmetry   4 Full Blocks  5 Partial Blocksize   3
 @PUTFOCK-I, Writing converged Fock matrix to NEWFOCK. 
 @PUTFOCK-I, Symmetry   1 Full Blocks 11 Partial Blocksize   2
 @PUTFOCK-I, Symmetry   2 Full Blocks  5 Partial Blocksize   3
 @PUTFOCK-I, Symmetry   3 Full Blocks 11 Partial Blocksize   2
 @PUTFOCK-I, Symmetry   4 Full Blocks  5 Partial Blocksize   3


 
  ORBITAL EIGENVALUES (ALPHA)  (1H = 27.2113834 eV)

       MO #        E(hartree)               E(eV)           FULLSYM    COMPSYM
       ----   --------------------   --------------------   -------   ---------
    1    70         -20.6808882227        -562.7555784804      Bu        Bu (3)
    2     1         -20.6808446633        -562.7543931683      Ag        Ag (1)
    3     2          -1.4653003414         -39.8728493866      Ag        Ag (1)
    4    71          -1.3857512904         -37.7082096593      Bu        Bu (3)
    5    72          -0.7384954414         -20.0954825963      Bu        Bu (3)
    6     3          -0.7246751258         -19.7194126888      Ag        Ag (1)
    7     4          -0.6798430984         -18.4994712012      Ag        Ag (1)
    8    47          -0.6724100925         -18.2972088301      Au        Au (2)
    9   116          -0.6220227444         -16.9260993816      Bg        Bg (4)
   10    73          -0.5484910380         -14.9251999257      Bu        Bu (3)
  +++++++++++++++++++++++++++++++++++++++++++++++++++++++++++++++++++++++++++++
   11     5           0.0329668830           0.8970744925      Ag        Ag (1)
   12    74           0.0446488400           1.2149567023      Bu        Bu (3)
   13    75           0.1181495753           3.2150133925      Bu        Bu (3)
   14    48           0.1476920191           4.0189041579      Au        Au (2)
   15     6           0.1505425621           4.0964713740      Ag        Ag (1)
   16     7           0.1644300465           4.4743690367      Ag        Ag (1)
   17    76           0.1742101271           4.7404985617      Bu        Bu (3)
   18     8           0.1930725139           5.2537701991      Ag        Ag (1)
   19   117           0.1960889618           5.3358519191      Bg        Bg (4)
   20   118           0.2519733209           6.8565426413      Bg        Bg (4)
   21     9           0.2675822327           7.2812827252      Ag        Ag (1)
   22    77           0.2755096831           7.4969996179      Bu        Bu (3)
   23    78           0.3092318300           8.4146258851      Bu        Bu (3)
   24    49           0.3355481430           9.1307291672      Au        Au (2)
   25    79           0.3542891884           9.6406989413      Bu        Bu (3)
   26    10           0.4080869210          11.1046096675      Ag        Ag (1)
   27    11           0.4322598662          11.7623889469      Ag        Ag (1)
   28    80           0.4409888892          11.9999177401      Bu        Bu (3)
   29    12           0.6543336214          17.8053230447      Ag        Ag (1)
   30    50           0.6553725647          17.8335941279      Au        Au (2)
   31    81           0.6672784893          18.1575708063      Bu        Bu (3)
   32   119           0.6831830578          18.5903561184      Bg        Bg (4)
   33    82           0.6875491013          18.7091622025      Bu        Bu (3)
   34    51           0.7515525023          20.4507832867      Au        Au (2)
   35    83           0.7639732908          20.7887701241      Bu        Bu (3)
   36    13           0.7969780599          21.6868755485      Ag        Ag (1)
   37   120           0.8214987215          22.3541166734      Bg        Bg (4)
   38    14           0.8475804109          23.0638355239      Ag        Ag (1)
   39    84           0.8540725069          23.2404944377      Bu        Bu (3)
   40    52           0.8815705973          23.9887555162      Au        Au (2)
   41    15           0.8822110461          24.0061830147      Ag        Ag (1)
   42   121           0.9305613008          25.3218603341      Bg        Bg (4)
   43    53           0.9589803034          26.0951807100      Au        Au (2)
   44    85           0.9725113583          26.4633794313      Bu        Bu (3)
   45    16           0.9738783611          26.5005774693      Ag        Ag (1)
   46   122           0.9830239809          26.7494424365      Bg        Bg (4)
   47    17           0.9886832588          26.9034392152      Ag        Ag (1)
   48    18           1.0051221063          27.3507629984      Ag        Ag (1)
   49    86           1.0298423382          28.0234347071      Bu        Bu (3)
   50    87           1.1586233309          31.5277436721      Bu        Bu (3)
   51   123           1.1591274483          31.5414614053      Bg        Bg (4)
   52    88           1.1866128117          32.2893761672      Bu        Bu (3)
   53    19           1.1962829864          32.5525149966      Ag        Ag (1)
   54    54           1.2355525782          33.6210949171      Au        Au (2)
   55    89           1.3751585151          37.4199655898      Bu        Bu (3)
   56    20           1.3992610602          38.0758291860      Ag        Ag (1)
   57   124           1.5188300389          41.3294665080      Bg        Bg (4)
   58    55           1.5196800156          41.3525955502      Au        Au (2)
   59    90           1.5364719140          41.8095263360      Bu        Bu (3)
   60    21           1.6236880568          44.1827982361      Ag        Ag (1)
   61    22           1.7772873573          48.3624476926      Ag        Ag (1)
   62    56           1.8669257059          50.8016311621      Au        Au (2)
   63    91           1.8999282702          51.6996765916      Bu        Bu (3)
   64    23           1.9858616270          54.0380421122      Ag        Ag (1)
   65    24           2.0665395781          56.2334007717      Ag        Ag (1)
   66    92           2.1364171359          58.1348657870      Bu        Bu (3)
   67    25           2.2034050457          59.9576994831      Ag        Ag (1)
   68   125           2.2083373707          60.0919148701      Bg        Bg (4)
   69    57           2.2323085313          60.7442033113      Au        Au (2)
   70    93           2.2486048469          61.1876486050      Bu        Bu (3)
   71   126           2.2657386619          61.6538834126      Bg        Bg (4)
   72   127           2.3027660899          62.6614509535      Bg        Bg (4)
   73    94           2.3092697387          62.8384242327      Bu        Bu (3)
   74    58           2.3412371894          63.7083027920      Au        Au (2)
   75    26           2.4222579316          65.9129892701      Ag        Ag (1)
   76    95           2.4360529367          66.2883704420      Bu        Bu (3)
   77    59           2.4439747117          66.5039328992      Au        Au (2)
   78    96           2.5053108481          68.1729740252      Bu        Bu (3)
   79    27           2.5505734195          69.4046312067      Ag        Ag (1)
   80    97           2.5888690511          70.4467083218      Bu        Bu (3)
   81    28           2.5956472214          70.6311517128      Ag        Ag (1)
   82   128           2.7177915782          73.9548686367      Bg        Bg (4)
   83    98           2.7215299014          74.0565935804      Bu        Bu (3)
   84    29           2.7606787016          75.1218865928      Ag        Ag (1)
   85    60           2.7966790193          76.1015050403      Au        Au (2)
   86   129           2.9046350151          79.0391370326      Bg        Bg (4)
   87    30           3.0452134383          82.8644704036      Ag        Ag (1)
   88    99           3.4165975184          92.9703449969      Bu        Bu (3)
   89    31           3.5864573214          97.5924652212      Ag        Ag (1)
   90   100           3.7061472499         100.8493937549      Bu        Bu (3)
   91    61           4.0465188680         110.1113763513      Au        Au (2)
   92   130           4.0833570400         111.1137939758      Bg        Bg (4)
   93    32           4.0859704733         111.1849091088      Ag        Ag (1)
   94    62           4.0996540233         111.5572574344      Au        Au (2)
   95   131           4.1414952200         112.6958142812      Bg        Bg (4)
   96   101           4.2259246528         114.9932559472      Bu        Bu (3)
   97    63           4.3205355464         117.5677492465      Au        Au (2)
   98   132           4.3795362117         119.1732389706      Bg        Bg (4)
   99   102           4.4140350276         120.1119994759      Bu        Bu (3)
  100    33           4.5462349082         123.7093411133      Ag        Ag (1)
  101   103           4.6373308143         126.1881867407      Bu        Bu (3)
  102    34           4.6518612857         126.5835809701      Ag        Ag (1)
  103    35           4.7657140520         129.6816722427      Ag        Ag (1)
  104   104           4.7677064218         129.7358873836      Bu        Bu (3)
  105    36           5.1419988332         139.9209016918      Ag        Ag (1)
  106   105           5.1853255197         141.0998807712      Bu        Bu (3)
  107   133           5.2511122868         142.8900297133      Bg        Bg (4)
  108    64           5.3030504371         144.3033386337      Au        Au (2)
  109   106           5.3774287378         146.3272750898      Bu        Bu (3)
  110    37           5.4774637392         149.0493658669      Ag        Ag (1)
  111    38           6.1839558385         168.2739932506      Ag        Ag (1)
  112   107           6.2200238682         169.2554542345      Bu        Bu (3)
  113    65           6.5795613000         179.0389651393      Au        Au (2)
  114   108           6.5847895222         179.1812322965      Bu        Bu (3)
  115    66           6.6018340474         179.6450374081      Au        Au (2)
  116   134           6.6112464340         179.9011614683      Bg        Bg (4)
  117    39           6.6791012434         181.7475847016      Ag        Ag (1)
  118   135           6.6818602701         181.8226616355      Bg        Bg (4)
  119   109           6.8081468744         185.2590948427      Bu        Bu (3)
  120    40           6.8311445436         185.8848932369      Ag        Ag (1)
  121    41           6.9418094869         188.8962394382      Ag        Ag (1)
  122    67           6.9516492505         189.1639930185      Au        Au (2)
  123   136           7.1102538141         193.4798426073      Bg        Bg (4)
  124    68           7.1428105326         194.3657559559      Au        Au (2)
  125   110           7.1627635449         194.9087050241      Bu        Bu (3)
  126   137           7.1664029458         195.0077381568      Bg        Bg (4)
  127   138           7.1775019646         195.3097578140      Bg        Bg (4)
  128    69           7.2010966959         195.9518030919      Au        Au (2)
  129   111           7.2410789641         197.0397759219      Bu        Bu (3)
  130    42           7.2636956049         197.6552060052      Ag        Ag (1)
  131   112           7.2912453190         198.4048718392      Bu        Bu (3)
  132    43           7.3402983887         199.7396737249      Ag        Ag (1)
  133   113           7.5619151590         205.7701726295      Bu        Bu (3)
  134    44           7.6358057198         207.7808370103      Ag        Ag (1)
  135    45           7.7674238647         211.3623488131      Ag        Ag (1)
  136   114           8.3817042108         228.0777668263      Bu        Bu (3)
  137    46          13.1358354360         357.4442543289      Ag        Ag (1)
  138   115          15.0925614406         410.6894758493      Bu        Bu (3)


 
  ORBITAL EIGENVALUES ( BETA)  (1H = 27.2113834 eV)

       MO #        E(hartree)               E(eV)           FULLSYM    COMPSYM
       ----   --------------------   --------------------   -------   ---------
    1     1         -20.6221168378        -561.1563277943      Ag        Ag (1)
    2    70         -20.6219699710        -561.1523313451      Bu        Bu (3)
    3     2          -1.2884405020         -35.0602484887      Ag        Ag (1)
    4    71          -1.1852859002         -32.2532690698      Bu        Bu (3)
    5    72          -0.6832168054         -18.5912744382      Bu        Bu (3)
    6     3          -0.6186851446         -16.8352786725      Ag        Ag (1)
    7     4          -0.4310544289         -11.7295873310      Ag        Ag (1)
    8    47          -0.3443796762          -9.3710474053      Au        Au (2)
  +++++++++++++++++++++++++++++++++++++++++++++++++++++++++++++++++++++++++++++
    9   116          -0.0091471965          -0.2489078720      Bg        Bg (4)
   10     5           0.0326202734           0.8876427665      Ag        Ag (1)
   11    73           0.0385261476           1.0483497744      Bu        Bu (3)
   12    74           0.0792462146           2.1563991291      Bu        Bu (3)
   13    75           0.1325783576           3.6076405194      Bu        Bu (3)
   14     6           0.1542076227           4.1962027451      Ag        Ag (1)
   15    48           0.1661907182           4.5222793501      Au        Au (2)
   16     7           0.1669782643           4.5437095689      Ag        Ag (1)
   17     8           0.1958062064           5.3281577544      Ag        Ag (1)
   18    76           0.1990948150           5.4176453439      Bu        Bu (3)
   19   117           0.2105654861           5.7297781722      Bg        Bg (4)
   20   118           0.2551948513           6.9442049417      Bg        Bg (4)
   21     9           0.2627399211           7.1495167277      Ag        Ag (1)
   22    77           0.2778056298           7.5594755021      Bu        Bu (3)
   23    78           0.3095694167           8.4238120857      Bu        Bu (3)
   24    49           0.3469001242           9.4396322818      Au        Au (2)
   25    79           0.3610078797           9.8235238255      Bu        Bu (3)
   26    10           0.4197633991          11.4223427899      Ag        Ag (1)
   27    11           0.4431357593          12.0583370454      Ag        Ag (1)
   28    80           0.4524410730          12.3115475043      Bu        Bu (3)
   29    12           0.6498586518          17.6835529301      Ag        Ag (1)
   30    50           0.6591023089          17.9350856265      Au        Au (2)
   31    81           0.6739560583          18.3392766981      Bu        Bu (3)
   32   119           0.6796907382          18.4953252706      Bg        Bg (4)
   33    82           0.6888334508          18.7441111278      Bu        Bu (3)
   34    51           0.7561194674          20.5750567235      Au        Au (2)
   35    83           0.7973643602          21.6973873158      Bu        Bu (3)
   36    13           0.8082238254          21.9928883858      Ag        Ag (1)
   37    84           0.8526042095          23.2005400325      Bu        Bu (3)
   38    14           0.8599897326          23.4015103326      Ag        Ag (1)
   39   120           0.8702483827          23.6806623946      Bg        Bg (4)
   40    15           0.8927114792          24.2919143263      Ag        Ag (1)
   41    52           0.9145970316          24.8874504841      Au        Au (2)
   42   121           0.9298751444          25.3031890691      Bg        Bg (4)
   43    16           0.9767053981          26.5775050561      Ag        Ag (1)
   44   122           0.9861167683          26.8336014586      Bg        Bg (4)
   45    85           0.9881364674          26.8885602648      Bu        Bu (3)
   46    17           1.0001428186          27.2152696926      Ag        Ag (1)
   47    53           1.0105739710          27.4991157783      Au        Au (2)
   48    18           1.0162513502          27.6536051214      Ag        Ag (1)
   49    86           1.0434546067          28.3938433644      Bu        Bu (3)
   50    87           1.1579506183          31.5094382319      Bu        Bu (3)
   51    88           1.1919413545          32.4343731885      Bu        Bu (3)
   52   123           1.2035447436          32.7501174580      Bg        Bg (4)
   53    54           1.2382865486          33.6954900336      Au        Au (2)
   54    19           1.2552322040          34.1566047589      Ag        Ag (1)
   55    89           1.3925462099          37.8931088200      Bu        Bu (3)
   56    20           1.4182170158          38.5916469621      Ag        Ag (1)
   57   124           1.5257519117          41.5178202432      Bg        Bg (4)
   58    55           1.5304213909          41.6448832309      Au        Au (2)
   59    90           1.5512620630          42.2119867503      Bu        Bu (3)
   60    21           1.6324186689          44.4203702683      Ag        Ag (1)
   61    22           1.7953717189          48.8545481887      Ag        Ag (1)
   62    56           1.8920795823          51.4861029372      Au        Au (2)
   63    91           1.9235331224          52.3419972758      Bu        Bu (3)
   64    23           2.0341290858          55.3514664385      Ag        Ag (1)
   65    24           2.0934795770          56.9664754085      Ag        Ag (1)
   66    92           2.1760654511          59.2137512935      Bu        Bu (3)
   67    25           2.2262469447          60.5792591555      Ag        Ag (1)
   68    57           2.2580148184          61.4437069453      Au        Au (2)
   69   125           2.2831389274          62.1273687083      Bg        Bg (4)
   70   126           2.2957943214          62.4717394884      Bg        Bg (4)
   71    93           2.2977693631          62.5254831038      Bu        Bu (3)
   72   127           2.3187574991          63.0965993188      Bg        Bg (4)
   73    94           2.3246199017          63.2561234032      Bu        Bu (3)
   74    58           2.3791864710          64.7409552429      Au        Au (2)
   75    95           2.4508846432          66.6919616951      Bu        Bu (3)
   76    26           2.4612676348          66.9744972592      Ag        Ag (1)
   77    59           2.4727891724          67.2880142384      Au        Au (2)
   78    96           2.5360864862          69.0104217118      Bu        Bu (3)
   79    27           2.5717166182          69.9799668938      Ag        Ag (1)
   80    97           2.6079923119          70.9670787047      Bu        Bu (3)
   81    28           2.6244142222          71.4139415996      Ag        Ag (1)
   82    98           2.7405433828          74.5739767136      Bu        Bu (3)
   83   128           2.7452592950          74.7023032088      Bg        Bg (4)
   84    29           2.7801345518          75.6513071917      Ag        Ag (1)
   85    60           2.8244762243          76.8579054447      Au        Au (2)
   86   129           2.9287890174          79.6964008509      Bg        Bg (4)
   87    30           3.0690419277          83.5128765661      Ag        Ag (1)
   88    99           3.4638625296          94.2564913379      Bu        Bu (3)
   89    31           3.5897730534          97.6826908762      Ag        Ag (1)
   90   100           3.7109159283         100.9791560903      Bu        Bu (3)
   91    32           4.0960105580         111.4581137040      Ag        Ag (1)
   92    61           4.0979507297         111.5109084605      Au        Au (2)
   93    62           4.1340728388         112.4938410209      Au        Au (2)
   94   130           4.1362640666         112.5534673607      Bg        Bg (4)
   95   131           4.1791336692         113.7200085527      Bg        Bg (4)
   96   101           4.2634385386         116.0140606749      Bu        Bu (3)
   97    63           4.3217049338         117.5995698950      Au        Au (2)
   98   132           4.3761974924         119.0823877987      Bg        Bg (4)
   99   102           4.4582907310         121.3162583907      Bu        Bu (3)
  100    33           4.5883095767         124.8542510504      Ag        Ag (1)
  101   103           4.6357218712         126.1444051719      Bu        Bu (3)
  102    34           4.6768316563         127.2630592977      Ag        Ag (1)
  103    35           4.7667743306         129.7105238913      Ag        Ag (1)
  104   104           4.7852786995         130.2140533673      Bu        Bu (3)
  105    36           5.1702048594         140.6884266846      Ag        Ag (1)
  106   105           5.2197173777         142.0357308048      Bu        Bu (3)
  107   133           5.2818203724         143.7256392023      Bg        Bg (4)
  108    64           5.3325436087         145.1058886346      Au        Au (2)
  109   106           5.4081099866         147.1621543155      Bu        Bu (3)
  110    37           5.5152405452         150.0773250200      Ag        Ag (1)
  111    38           6.2130030587         169.0644082969      Ag        Ag (1)
  112   107           6.2498755373         170.0677594467      Bu        Bu (3)
  113    65           6.6338111262         180.5151779577      Au        Au (2)
  114   108           6.6481868194         180.9063604565      Bu        Bu (3)
  115   134           6.6635171951         181.3235211872      Bg        Bg (4)
  116    66           6.6717455427         181.5474259086      Au        Au (2)
  117    39           6.7275987219         183.0672681832      Ag        Ag (1)
  118   135           6.7425875927         183.4751360938      Bg        Bg (4)
  119   109           6.8547202961         186.5264220783      Bu        Bu (3)
  120    40           6.8894081015         187.4703252500      Ag        Ag (1)
  121    41           7.0595024447         192.0988276368      Ag        Ag (1)
  122    67           7.0635479789         192.2089122172      Au        Au (2)
  123   136           7.1740813257         195.2166774965      Bg        Bg (4)
  124    68           7.1808725075         195.4014749470      Au        Au (2)
  125   110           7.2356804360         196.8928745052      Bu        Bu (3)
  126   137           7.2411775233         197.0424578544      Bg        Bg (4)
  127   138           7.2685849829         197.7882527438      Bg        Bg (4)
  128    69           7.2744336766         197.9474037921      Au        Au (2)
  129   111           7.2808782946         198.1227707630      Bu        Bu (3)
  130    42           7.2971193567         198.5647125299      Ag        Ag (1)
  131   112           7.3844562394         200.9412699316      Bu        Bu (3)
  132    43           7.3941624323         201.2053888672      Ag        Ag (1)
  133   113           7.5860065343         206.4257322801      Bu        Bu (3)
  134    44           7.6804180843         208.9948011629      Ag        Ag (1)
  135    45           7.8116486992         212.5657677402      Ag        Ag (1)
  136   114           8.4336471719         229.4912066545      Bu        Bu (3)
  137    46          13.1819799472         358.6999103154      Ag        Ag (1)
  138   115          15.1352954282         411.8523267692      Bu        Bu (3)


  VSCF finished.

 @CHECKOUT-I, Total execution time (CPU/WALL):        7.75/       7.77 seconds.
--executable xvscf finished with status     0 in        7.81 seconds (walltime).
 --invoking executable--
/apps/eb/cfour/2.1-iompi-2018a-serial/bin/xvtran
 @GETMEM-I,  Allocated   38146 MB of main memory.
  Full UHF integral transformation
  Frozen-core orbitals requested within analytic derivative calculation
  Transformation of IIII integrals :
  2 passes through the AO integral file were required.
     1246094 AO integrals were read.
     1246094 MO integrals (Spin case AAAA) were written to HF2AA.
     1246094 MO integrals (Spin case BBBB) were written to HF2BB.
     2489474 MO integrals (Spin case AABB) were written to HF2AB.
  Transformation of IIJJ integrals :
  2 passes through the AO integral file were required.
     2438161 AO integrals were read.
     2438161 MO integrals (Spin case AAAA) were written to HF2AA.
     2438161 MO integrals (Spin case BBBB) were written to HF2BB.
     4876322 MO integrals (Spin case AABB) were written to HF2AB.
  Transformation of IJIJ integrals :
  2 passes through the AO integral file were required.
     4620815 AO integrals were read.
     4620815 MO integrals (Spin case AAAA) were written to HF2AA.
     4620815 MO integrals (Spin case BBBB) were written to HF2BB.
     9234753 MO integrals (Spin case AABB) were written to HF2AB.
  Transformation of IJKL integrals :
  2 passes through the AO integral file were required.
     3358092 AO integrals were read.
     3358092 MO integrals (Spin case AAAA) were written to HF2AA.
     3358092 MO integrals (Spin case BBBB) were written to HF2BB.
     6716184 MO integrals (Spin case AABB) were written to HF2AB.
  Summary of active molecular orbitals: 
------------------------------------------------------------------------
                         * Spin case alpha *
 
  Index      Eigenvalue    Symmetry    Index      Eigenvalue    Symmetry
------------------------------------------------------------------------
     1       -20.6808447        1        70         6.5795613        2
     2        -1.4653003        1        71         6.6018340        2
     3        -0.7246751        1        72         6.9516493        2
     4        -0.6798431        1        73         7.1428105        2
     5        -0.6724101        2        74         7.2010967        2
     6       -20.6808882        3        75         0.0446488        3
     7        -1.3857513        3        76         0.1181496        3
     8        -0.7384954        3        77         0.1742101        3
     9        -0.5484910        3        78         0.2755097        3
    10        -0.6220227        4        79         0.3092318        3
    11         0.0329669        1        80         0.3542892        3
    12         0.1505426        1        81         0.4409889        3
    13         0.1644300        1        82         0.6672785        3
    14         0.1930725        1        83         0.6875491        3
    15         0.2675822        1        84         0.7639733        3
    16         0.4080869        1        85         0.8540725        3
    17         0.4322599        1        86         0.9725114        3
    18         0.6543336        1        87         1.0298423        3
    19         0.7969781        1        88         1.1586233        3
    20         0.8475804        1        89         1.1866128        3
    21         0.8822110        1        90         1.3751585        3
    22         0.9738784        1        91         1.5364719        3
    23         0.9886833        1        92         1.8999283        3
    24         1.0051221        1        93         2.1364171        3
    25         1.1962830        1        94         2.2486048        3
    26         1.3992611        1        95         2.3092697        3
    27         1.6236881        1        96         2.4360529        3
    28         1.7772874        1        97         2.5053108        3
    29         1.9858616        1        98         2.5888691        3
    30         2.0665396        1        99         2.7215299        3
    31         2.2034050        1       100         3.4165975        3
    32         2.4222579        1       101         3.7061472        3
    33         2.5505734        1       102         4.2259247        3
    34         2.5956472        1       103         4.4140350        3
    35         2.7606787        1       104         4.6373308        3
    36         3.0452134        1       105         4.7677064        3
    37         3.5864573        1       106         5.1853255        3
    38         4.0859705        1       107         5.3774287        3
    39         4.5462349        1       108         6.2200239        3
    40         4.6518613        1       109         6.5847895        3
    41         4.7657141        1       110         6.8081469        3
    42         5.1419988        1       111         7.1627635        3
    43         5.4774637        1       112         7.2410790        3
    44         6.1839558        1       113         7.2912453        3
    45         6.6791012        1       114         7.5619152        3
    46         6.8311445        1       115         8.3817042        3
    47         6.9418095        1       116        15.0925614        3
    48         7.2636956        1       117         0.1960890        4
    49         7.3402984        1       118         0.2519733        4
    50         7.6358057        1       119         0.6831831        4
    51         7.7674239        1       120         0.8214987        4
    52        13.1358354        1       121         0.9305613        4
    53         0.1476920        2       122         0.9830240        4
    54         0.3355481        2       123         1.1591274        4
    55         0.6553726        2       124         1.5188300        4
    56         0.7515525        2       125         2.2083374        4
    57         0.8815706        2       126         2.2657387        4
    58         0.9589803        2       127         2.3027661        4
    59         1.2355526        2       128         2.7177916        4
    60         1.5196800        2       129         2.9046350        4
    61         1.8669257        2       130         4.0833570        4
    62         2.2323085        2       131         4.1414952        4
    63         2.3412372        2       132         4.3795362        4
    64         2.4439747        2       133         5.2511123        4
    65         2.7966790        2       134         6.6112464        4
    66         4.0465189        2       135         6.6818603        4
    67         4.0996540        2       136         7.1102538        4
    68         4.3205355        2       137         7.1664029        4
    69         5.3030504        2       138         7.1775020        4
------------------------------------------------------------------------
------------------------------------------------------------------------
                         * Spin case beta *
 
  Index      Eigenvalue    Symmetry    Index      Eigenvalue    Symmetry
------------------------------------------------------------------------
     1       -20.6221168        1        70         7.0635480        2
     2        -1.2884405        1        71         7.1808725        2
     3        -0.6186851        1        72         7.2744337        2
     4        -0.4310544        1        73         0.0385261        3
     5        -0.3443797        2        74         0.0792462        3
     6       -20.6219700        3        75         0.1325784        3
     7        -1.1852859        3        76         0.1990948        3
     8        -0.6832168        3        77         0.2778056        3
     9         0.0326203        1        78         0.3095694        3
    10         0.1542076        1        79         0.3610079        3
    11         0.1669783        1        80         0.4524411        3
    12         0.1958062        1        81         0.6739561        3
    13         0.2627399        1        82         0.6888335        3
    14         0.4197634        1        83         0.7973644        3
    15         0.4431358        1        84         0.8526042        3
    16         0.6498587        1        85         0.9881365        3
    17         0.8082238        1        86         1.0434546        3
    18         0.8599897        1        87         1.1579506        3
    19         0.8927115        1        88         1.1919414        3
    20         0.9767054        1        89         1.3925462        3
    21         1.0001428        1        90         1.5512621        3
    22         1.0162514        1        91         1.9235331        3
    23         1.2552322        1        92         2.1760655        3
    24         1.4182170        1        93         2.2977694        3
    25         1.6324187        1        94         2.3246199        3
    26         1.7953717        1        95         2.4508846        3
    27         2.0341291        1        96         2.5360865        3
    28         2.0934796        1        97         2.6079923        3
    29         2.2262469        1        98         2.7405434        3
    30         2.4612676        1        99         3.4638625        3
    31         2.5717166        1       100         3.7109159        3
    32         2.6244142        1       101         4.2634385        3
    33         2.7801346        1       102         4.4582907        3
    34         3.0690419        1       103         4.6357219        3
    35         3.5897731        1       104         4.7852787        3
    36         4.0960106        1       105         5.2197174        3
    37         4.5883096        1       106         5.4081100        3
    38         4.6768317        1       107         6.2498755        3
    39         4.7667743        1       108         6.6481868        3
    40         5.1702049        1       109         6.8547203        3
    41         5.5152405        1       110         7.2356804        3
    42         6.2130031        1       111         7.2808783        3
    43         6.7275987        1       112         7.3844562        3
    44         6.8894081        1       113         7.5860065        3
    45         7.0595024        1       114         8.4336472        3
    46         7.2971194        1       115        15.1352954        3
    47         7.3941624        1       116        -0.0091472        4
    48         7.6804181        1       117         0.2105655        4
    49         7.8116487        1       118         0.2551949        4
    50        13.1819799        1       119         0.6796907        4
    51         0.1661907        2       120         0.8702484        4
    52         0.3469001        2       121         0.9298751        4
    53         0.6591023        2       122         0.9861168        4
    54         0.7561195        2       123         1.2035447        4
    55         0.9145970        2       124         1.5257519        4
    56         1.0105740        2       125         2.2831389        4
    57         1.2382865        2       126         2.2957943        4
    58         1.5304214        2       127         2.3187575        4
    59         1.8920796        2       128         2.7452593        4
    60         2.2580148        2       129         2.9287890        4
    61         2.3791865        2       130         4.1362641        4
    62         2.4727892        2       131         4.1791337        4
    63         2.8244762        2       132         4.3761975        4
    64         4.0979507        2       133         5.2818204        4
    65         4.1340728        2       134         6.6635172        4
    66         4.3217049        2       135         6.7425876        4
    67         5.3325436        2       136         7.1740813        4
    68         6.6338111        2       137         7.2411775        4
    69         6.6717455        2       138         7.2685850        4
------------------------------------------------------------------------
  -20.6808446632767       -1.46530034142411      -0.724675125807859     
 -0.679843098357232      -0.672410092538411       -20.6808882226978     
  -1.38575129036899      -0.738495441444665      -0.548491037969857     
 -0.622022744407141       3.296688298664995E-002  0.150542562051441     
  0.164430046461338       0.193072513877083       0.267582232707826     
  0.408086920985439       0.432259866172913       0.654333621445674     
  0.796978059867815       0.847580410922372       0.882211046084887     
  0.973878361115561       0.988683258758706        1.00512210630367     
   1.19628298635471        1.39926106020690        1.62368805682017     
   1.77728735734163        1.98586162701931        2.06653957812752     
   2.20340504566409        2.42225793158515        2.55057341945796     
   2.59564722140687        2.76067870157639        3.04521343827137     
   3.58645732143260        4.08597047325482        4.54623490819197     
   4.65186128574786        4.76571405196004        5.14199883317075     
   5.47746373919574        6.18395583851844        6.67910124339962     
   6.83114454360571        6.94180948691605        7.26369560487789     
   7.34029838868327        7.63580571983292        7.76742386471603     
   13.1358354360202       0.147692019137441       0.335548142959835     
  0.655372564700901       0.751552502349392       0.881570597258668     
  0.958980303442056        1.23555257823167        1.51968001561459     
   1.86692570588229        2.23230853126164        2.34123718943477     
   2.44397471167115        2.79667901927813        4.04651886795774     
   4.09965402326540        4.32053554640264        5.30305043710902     
   6.57956130004316        6.60183404744139        6.95164925052898     
   7.14281053259250        7.20109669587257       4.464883995351353E-002
  0.118149575315321       0.174210127138267       0.275509683124149     
  0.309231829981979       0.354289188445554       0.440988889233067     
  0.667278489275725       0.687549101326802       0.763973290827509     
  0.854072506937236       0.972511358288987        1.02984233822823     
   1.15862333085547        1.18661281172482        1.37515851508847     
   1.53647191402833        1.89992827015279        2.13641713588986     
   2.24860484693255        2.30926973865901        2.43605293665308     
   2.50531084814939        2.58886905109603        2.72152990135892     
   3.41659751840788        3.70614724993780        4.22592465281246     
   4.41403502755609        4.63733081430708        4.76770642184980     
   5.18532551973055        5.37742873777630        6.22002386819234     
   6.58478952218436        6.80814687439604        7.16276354491171     
   7.24107896410541        7.29124531901625        7.56191515898738     
   8.38170421083086        15.0925614406381       0.196088961766575     
  0.251973320890180       0.683183057808397       0.821498721501719     
  0.930561300832137       0.983023980931445        1.15912744830547     
   1.51883003890077        2.20833737068052        2.26573866188000     
   2.30276608992683        2.71779157823649        2.90463501508677     
   4.08335704004498        4.14149522001918        4.37953621169462     
   5.25111228682523        6.61124643403244        6.68186027012100     
   7.11025381412021        7.16640294578984        7.17750196463554     
  -20.6221168378498       -1.28844050202695      -0.618685144559521     
 -0.431054428898859      -0.344379676239298       -20.6219699710348     
  -1.18528590023197      -0.683216805442307       3.262027341415871E-002
  0.154207622721587       0.166978264284638       0.195806206396634     
  0.262739921106408       0.419763399090137       0.443135759331257     
  0.649858651805176       0.808223825392220       0.859989732554664     
  0.892711479206548       0.976705398084736        1.00014281863326     
   1.01625135021357        1.25523220399230        1.41821701582917     
   1.63241866888490        1.79537171890795        2.03412908578857     
   2.09347957695312        2.22624694470820        2.46126763475187     
   2.57171661819164        2.62441422215910        2.78013455176780     
   3.06904192773044        3.58977305344062        4.09601055799244     
   4.58830957673456        4.67683165633076        4.76677433060354     
   5.17020485936069        5.51524054524779        6.21300305874702     
   6.72759872190827        6.88940810153665        7.05950244472900     
   7.29711935667035        7.39416243230116        7.68041808425436     
   7.81164869920656        13.1819799472370       0.166190718187604     
  0.346900124225206       0.659102308871330       0.756119467393897     
  0.914597031628642        1.01057397097532        1.23828654862257     
   1.53042139088261        1.89207958229731        2.25801481836206     
   2.37918647101611        2.47278917243063        2.82447622434137     
   4.09795072971085        4.13407283883029        4.32170493378819     
   5.33254360873979        6.63381112618203        6.67174554266205     
   7.06354797886406        7.18087250745927        7.27443367660924     
  3.852614764052933E-002  7.924621462407327E-002  0.132578357607056     
  0.199094814998142       0.277805629762120       0.309569416661188     
  0.361007879719357       0.452441073035597       0.673956058334675     
  0.688833450774428       0.797364360231743       0.852604209475918     
  0.988136467357337        1.04345460673621        1.15795061826689     
   1.19194135453434        1.39254620990586        1.55126206300632     
   1.92353312238586        2.17606545110578        2.29776936309056     
   2.32461990165517        2.45088464319468        2.53608648620894     
   2.60799231194943        2.74054338279744        3.46386252960347     
   3.71091592830476        4.26343853855139        4.45829073102782     
   4.63572187116076        4.78527869947624        5.21971737771986     
   5.40810998662770        6.24987553726230        6.64818681936306     
   6.85472029614888        7.23568043604990        7.28087829459534     
[...]
 ======================================================================
 Norm of residual vector:     0.86027208
 CPU time [min]:  2377.303                   Wall time [min]:   367.644
 
 Iteration  2  CI energy:  -151.29827194  Energy decrease:   0.0000E+00
 ======================================================================
 Norm of residual vector:     0.24040778
 CPU time [min]:  2449.276                   Wall time [min]:   379.070
 
 Iteration  3  CI energy:  -151.29827194  Energy decrease:   0.0000E+00
 ======================================================================
 Norm of residual vector:     0.10097162
 CPU time [min]:  2518.723                   Wall time [min]:   390.172
 
 Iteration  4  CI energy:  -151.29827194  Energy decrease:   0.0000E+00
 ======================================================================
 Norm of residual vector:     0.04380422
 CPU time [min]:  2589.998                   Wall time [min]:   401.445
 
 Iteration  5  CI energy:  -151.29827194  Energy decrease:   0.0000E+00
 ======================================================================
 Norm of residual vector:     0.02051346
 CPU time [min]:  2661.851                   Wall time [min]:   412.864
 
 Iteration  6  CI energy:  -151.29827194  Energy decrease:   0.0000E+00
 ======================================================================
 Norm of residual vector:     0.00948562
 CPU time [min]:  2732.427                   Wall time [min]:   424.245
 
 Iteration  7  CI energy:  -151.29827194  Energy decrease:   0.0000E+00
 ======================================================================
 Norm of residual vector:     0.00476611
 CPU time [min]:  2803.996                   Wall time [min]:   435.841
 
 Iteration  8  CI energy:  -151.29827194  Energy decrease:   0.0000E+00
 ======================================================================
 Norm of residual vector:     0.00207206
 CPU time [min]:  2875.987                   Wall time [min]:   447.468
 
 Iteration  9  CI energy:  -151.29827194  Energy decrease:   0.0000E+00
 ======================================================================
 Norm of residual vector:     0.00096867
 CPU time [min]:  2948.518                   Wall time [min]:   459.109
 
 Iteration 10  CI energy:  -151.29827194  Energy decrease:   0.0000E+00
 ======================================================================
 Norm of residual vector:     0.00047279
 CPU time [min]:  3021.423                   Wall time [min]:   470.812
 
 Iteration 11  CI energy:  -151.29827194  Energy decrease:   0.0000E+00
 ======================================================================
 Norm of residual vector:     0.00020624
 CPU time [min]:  3094.846                   Wall time [min]:   482.694
 
 Iteration 12  CI energy:  -151.29827194  Energy decrease:   0.0000E+00
 ======================================================================
 Norm of residual vector:     0.00010163
 CPU time [min]:  3167.864                   Wall time [min]:   494.621
 
 Iteration 13  CI energy:  -151.29827194  Energy decrease:   0.0000E+00
 ======================================================================
 Norm of residual vector:     0.00005297
 CPU time [min]:  3242.758                   Wall time [min]:   506.699
 
 Iteration 14  CI energy:  -151.29827194  Energy decrease:   0.0000E+00
 ======================================================================
 Norm of residual vector:     0.00002643
 CPU time [min]:  3317.230                   Wall time [min]:   518.819
 
 Iteration 15  CI energy:  -151.29827194  Energy decrease:   0.0000E+00
 ======================================================================
 Norm of residual vector:     0.00001261
 CPU time [min]:  3392.979                   Wall time [min]:   531.057
 
 Iteration 16  CI energy:  -151.29827194  Energy decrease:   0.0000E+00
 ======================================================================
 Norm of residual vector:     0.00000565
 CPU time [min]:  3468.646                   Wall time [min]:   543.305
 
 Iteration 17  CI energy:  -151.29827194  Energy decrease:   0.0000E+00
 ======================================================================
 Norm of residual vector:     0.00000257
 CPU time [min]:  3543.438                   Wall time [min]:   555.492
 
 Iteration 18  CI energy:  -151.29827194  Energy decrease:   0.0000E+00
 ======================================================================
 Norm of residual vector:     0.00000109
 CPU time [min]:  3619.722                   Wall time [min]:   568.149
 
 Iteration 19  CI energy:  -151.29827194  Energy decrease:   0.0000E+00
 ======================================================================
 Norm of residual vector:     0.00000046
 CPU time [min]:  3694.875                   Wall time [min]:   580.639
 
 Iteration 20  CI energy:  -151.29827194  Energy decrease:   0.0000E+00
 ======================================================================
 Norm of residual vector:     0.00000021
 CPU time [min]:  3770.353                   Wall time [min]:   593.136
 
 Iteration 21  CI energy:  -151.29827194  Energy decrease:   0.0000E+00
 ======================================================================
 Norm of residual vector:     0.00000009
 CPU time [min]:  3846.879                   Wall time [min]:   605.944
 
 Iteration 22  CI energy:  -151.29827194  Energy decrease:   0.0000E+00
 ======================================================================
 Norm of residual vector:     0.00000004
 CPU time [min]:  3922.882                   Wall time [min]:   618.671
 
 Iteration 23  CI energy:  -151.29827194  Energy decrease:   0.0000E+00
 ======================================================================
 Norm of residual vector:     0.00000002
 CPU time [min]:  3998.992                   Wall time [min]:   631.689
 
 Iteration 24  CI energy:  -151.29827194  Energy decrease:   0.0000E+00
 ======================================================================
 Norm of residual vector:     0.00000001
 CPU time [min]:  4074.964                   Wall time [min]:   644.801
 
 Iteration 25  CI energy:  -151.29827194  Energy decrease:   0.0000E+00
 ======================================================================
 Norm of residual vector:     4.5727E-09
 CPU time [min]:  4153.259                   Wall time [min]:   658.210
 
 Iteration 26  CI energy:  -151.29827194  Energy decrease:   0.0000E+00
 ======================================================================
 Norm of residual vector:     2.1960E-09
 CPU time [min]:  4230.611                   Wall time [min]:   671.852
 
 Iteration 27  CI energy:  -151.29827194  Energy decrease:   0.0000E+00
 ======================================================================
 Norm of residual vector:     1.0253E-09
 CPU time [min]:  4307.522                   Wall time [min]:   685.498
 
 Iteration 28  CI energy:  -151.29827194  Energy decrease:   0.0000E+00
 ======================================================================
 Norm of residual vector:     4.6776E-10
 CPU time [min]:  4384.766                   Wall time [min]:   699.335
 
 Iteration 29  CI energy:  -151.29827194  Energy decrease:   0.0000E+00
 ======================================================================
 Norm of residual vector:     2.2065E-10
 CPU time [min]:  4462.359                   Wall time [min]:   713.198
 
 Iteration 30  CI energy:  -151.29827194  Energy decrease:   0.0000E+00
 ======================================================================
 Norm of residual vector:     1.0654E-10
 CPU time [min]:  4540.087                   Wall time [min]:   727.080
 
 Iteration 31  CI energy:  -151.29827194  Energy decrease:   0.0000E+00
 ======================================================================
 Norm of residual vector:     4.9830E-11
 CPU time [min]:  4618.305                   Wall time [min]:   741.174
 
 Iteration 32  CI energy:  -151.29827194  Energy decrease:   0.0000E+00
 ======================================================================
 Norm of residual vector:     2.1310E-11
 CPU time [min]:  4695.428                   Wall time [min]:   755.108
 
 Iteration 33  CI energy:  -151.29827194  Energy decrease:   0.0000E+00
 ======================================================================
 Norm of residual vector:     9.2910E-12
 CPU time [min]:  4774.087                   Wall time [min]:   769.414
 
 Iteration 34  CI energy:  -151.29827194  Energy decrease:   0.0000E+00
 ======================================================================
 Norm of residual vector:     4.2574E-12
 CPU time [min]:  4854.444                   Wall time [min]:   783.872
 
 Iteration 35  CI energy:  -151.29827194  Energy decrease:   0.0000E+00
 ======================================================================
 Norm of residual vector:     1.9737E-12
 CPU time [min]:  4933.207                   Wall time [min]:   798.127
 
 Iteration 36  CI energy:  -151.29827194  Energy decrease:   0.0000E+00
 ======================================================================
 Norm of residual vector:     9.7787E-13
 CPU time [min]:  4999.976                   Wall time [min]:   808.820
 
 Iteration 37  CI energy:  -151.29827194  Energy decrease:   0.0000E+00
 ======================================================================
 
 Iteration has converged in 37 steps.
 
 Final results:
 Total CCSDT energy [au]:           -151.298271938997
 
 
 
 Calculating reduced density-matrix for root 1...
 
 Total energy from RDM [au]:        -151.298271938996
 
 ************************ 2021-01-29 04:25:32 *************************
                      Normal termination of mrcc.
 **********************************************************************
--executable dmrcc finished with status     0 in    50968.84 seconds (walltime).
 --invoking executable--
/apps/eb/cfour/2.1-iompi-2018a-serial/bin/xdens
 @GETMEM-I,  Allocated   38146 MB of main memory.
  CCSDT density and intermediates are calculated.
  The perturbed orbitals are chosen canonical.
   Frozen core orbitals in analytic derivative calculation
  dropped orbitals                     1                     0
                     1                     0                     0
                     0                     0                     0
 ITERM.tmp does not exsit!
 skip reading
  @S2EXPECT-I, S**2 calculated as expectation value.
  @S2EXPECT-I, Contributions to <S**2> : 
  From one particle density : 
    D(ai)   :   -0.1150765419
    D(ij)   :    0.2706527461
    D(ab)   :   -0.0819275488
  From two particle density : 
    G(abcd) :   -0.0562066447
    G(abci) :    0.0240214025
    G(abij) :   -0.0857827878
    G(aibj) :   -0.0326588241
    G(ijka) :    0.0209746782
    G(ijkl) :   -0.0569129709
              Reference state <S**2>        :    2.1135353596.
              Total one particle correction :    0.0736486553.
              Total two particle correction :   -0.1865651467.
              Expectation value of <S**2>   :    2.0006188682.
  The iterative expansion of D(ai) converged after  20 iterations.
  ----------------------------------------------------------------------
                 Natural orbital occupation numbers
  ----------------------------------------------------------------------
                            Alpha spin
  ----------------------------------------------------------------------
  1.00000  1.00000  0.99206  0.99084  0.98423  0.98310  0.97988  0.97959
  0.97928  0.97697  0.01639  0.01484  0.01354  0.01072  0.00865  0.00796
  0.00605  0.00553  0.00428  0.00427  0.00404  0.00368  0.00367  0.00362
  0.00348  0.00332  0.00293  0.00192  0.00090  0.00077  0.00076  0.00068
  0.00063  0.00060  0.00058  0.00058  0.00050  0.00048  0.00048  0.00045
  0.00042  0.00038  0.00038  0.00038  0.00034  0.00033  0.00033  0.00032
  0.00031  0.00031  0.00030  0.00030  0.00030  0.00029  0.00027  0.00026
  0.00022  0.00021  0.00016  0.00011  0.00011  0.00010  0.00009  0.00008
  0.00007  0.00007  0.00007  0.00007  0.00006  0.00006  0.00006  0.00006
  0.00005  0.00005  0.00005  0.00004  0.00004  0.00004  0.00004  0.00003
  0.00003  0.00003  0.00003  0.00003  0.00003  0.00003  0.00003  0.00002
  0.00002  0.00002  0.00002  0.00002  0.00002  0.00002  0.00002  0.00002
  0.00002  0.00002  0.00001  0.00001  0.00001  0.00001  0.00001  0.00001
  0.00001  0.00001  0.00001  0.00001  0.00001  0.00000  0.00000  0.00000
  0.00000  0.00000  0.00000  0.00000  0.00000  0.00000  0.00000  0.00000
  0.00000  0.00000  0.00000  0.00000  0.00000  0.00000  0.00000  0.00000
  0.00000  0.00000  0.00000  0.00000  0.00000  0.00000  0.00000  0.00000
  0.00000  0.00000
  Trace of density matrix :  10.0000000000.
  ----------------------------------------------------------------------
                            Beta spin
  ----------------------------------------------------------------------
  1.00001  1.00001  0.98686  0.98391  0.97917  0.97618  0.88276  0.87816
  0.11089  0.10873  0.01533  0.01369  0.00705  0.00599  0.00593  0.00505
  0.00336  0.00333  0.00329  0.00308  0.00260  0.00250  0.00241  0.00235
  0.00204  0.00191  0.00136  0.00103  0.00075  0.00071  0.00058  0.00056
  0.00046  0.00042  0.00041  0.00041  0.00038  0.00036  0.00030  0.00029
  0.00029  0.00029  0.00029  0.00024  0.00024  0.00022  0.00021  0.00020
  0.00020  0.00020  0.00018  0.00018  0.00018  0.00018  0.00016  0.00015
  0.00015  0.00013  0.00010  0.00010  0.00010  0.00008  0.00007  0.00007
  0.00006  0.00006  0.00006  0.00006  0.00005  0.00005  0.00005  0.00005
  0.00004  0.00004  0.00004  0.00004  0.00003  0.00003  0.00003  0.00003
  0.00003  0.00003  0.00003  0.00002  0.00002  0.00002  0.00002  0.00002
  0.00002  0.00002  0.00002  0.00002  0.00002  0.00002  0.00002  0.00001
  0.00001  0.00001  0.00001  0.00001  0.00001  0.00001  0.00001  0.00001
  0.00001  0.00001  0.00001  0.00000  0.00000  0.00000  0.00000  0.00000
  0.00000  0.00000  0.00000  0.00000  0.00000  0.00000  0.00000  0.00000
  0.00000  0.00000  0.00000  0.00000  0.00000  0.00000  0.00000  0.00000
  0.00000  0.00000  0.00000  0.00000  0.00000  0.00000  0.00000  0.00000
  0.00000  0.00000
  Trace of density matrix :   8.0000000000.
  ----------------------------------------------------------------------
  Density calculation successfully completed.
 @CHECKOUT-I, Total execution time (CPU/WALL):      213.61/     213.77 seconds.
--executable xdens finished with status     0 in      213.85 seconds (walltime).
 --invoking executable--
/apps/eb/cfour/2.1-iompi-2018a-serial/bin/xanti
 @GETMEM-I,  Allocated   38146 MB of main memory.
 CCSDT MO gammas will be sorted to Mulliken order.
 @CHECKOUT-I, Total execution time (CPU/WALL):        5.42/       5.42 seconds.
--executable xanti finished with status     0 in        5.46 seconds (walltime).
 --invoking executable--
/apps/eb/cfour/2.1-iompi-2018a-serial/bin/xbcktrn
 @GETMEM-I,  Allocated   38146 MB of main memory.
 CCSDT MO gammas will be transformed to the AO basis.
 @CHECKOUT-I, Total execution time (CPU/WALL):        1.59/       1.59 seconds.
--executable xbcktrn finished with status     0 in        1.66 seconds (walltime).
 --invoking executable--
/apps/eb/cfour/2.1-iompi-2018a-serial/bin/xvdint
 @GETMEM-I,  Allocated   38146 MB of main memory.
 One- and two-electron integral derivatives are calculated
 for UHF-CC/MBPT gradients and dipole moments.
 Spherical gaussians are used.

                     Kinetic energy integral gradient
                     --------------------------------

                         O #1 x     0.0595289174
                         O #1 y    -1.2330085069
                         H #2 x    -0.0435343042
                         H #2 y     1.2552720187


 O #1 1     0.0297644587           -0.6165042534            0.0000000000
 O #1 2    -0.0297644587            0.6165042534            0.0000000000
 H #2 1    -0.0217671521            0.6276360093            0.0000000000
 H #2 2     0.0217671521           -0.6276360093            0.0000000000



                   Nuclear attraction integral gradient
                   ------------------------------------

                         O #1 x   -20.7195204606
                         O #1 y    11.8192964673
                         H #2 x    -1.4489538768
                         H #2 y   -12.6960415788


 O #1 1   -10.3597602303            5.9096482336            0.0000000000
 O #1 2    10.3597602303           -5.9096482336            0.0000000000
 H #2 1    -0.7244769384           -6.3480207894            0.0000000000
 H #2 2     0.7244769384            6.3480207894            0.0000000000



                      Reorthonormalization gradient
                      -----------------------------

                         O #1 x     0.0143240529
                         O #1 y    -0.5253022681
                         H #2 x     0.0133813119
                         H #2 y     0.5505816697


 O #1 1     0.0071620264           -0.2626511341            0.0000000000
 O #1 2    -0.0071620264            0.2626511341            0.0000000000
 H #2 1     0.0066906560            0.2752908348            0.0000000000
 H #2 2    -0.0066906560           -0.2752908348            0.0000000000



                Electronic contributions to dipole moment
                -----------------------------------------

                     All components zero by symmetry

  Conversion factor used: 1 a.u. =   2.54174691 Debye 


 Evaluation of 1e integral derivatives required    0.10 seconds.
 Evaluation of 2el integral derivatives

                      Two-electron integral gradient
                      ------------------------------

                         O #1 x     9.4983157143
                         O #1 y    -5.2321476668
                         H #2 x     0.8340788328
                         H #2 y     5.6062087540


 O #1 1     4.7491578571           -2.6160738334            0.0000000000
 O #1 2    -4.7491578571            2.6160738334            0.0000000000
 H #2 1     0.4170394164            2.8031043770            0.0000000000
 H #2 2    -0.4170394164           -2.8031043770            0.0000000000


 Evaluation of 2e integral derivatives required    8.30 seconds.

                            Molecular gradient
                            ------------------

                         O #1 x     0.0260117955
                         O #1 y    -0.0007671465
                         H #2 x     0.0053269839
                         H #2 y     0.0048391567


 O #1 1     0.0130058977           -0.0003835732            0.0000000000
 O #1 2    -0.0130058977            0.0003835732            0.0000000000
 H #2 1     0.0026634920            0.0024195783            0.0000000000
 H #2 2    -0.0026634920           -0.0024195783            0.0000000000


  Molecular gradient norm 0.270E-01

                           Total dipole moment
                           -------------------

                     All components zero by symmetry

  Conversion factor used: 1 a.u. =   2.54174691 Debye 


 @CHECKOUT-I, Total execution time (CPU/WALL):        8.38/       8.64 seconds.
--executable xvdint finished with status     0 in        8.72 seconds (walltime).
 --invoking executable--
/apps/eb/cfour/2.1-iompi-2018a-serial/bin/xjoda
  igrd and ihes are                      0                    -1
  gradient from JOBARC 
   0.013005897725011  -0.000383573249896   0.000000000000000
  -0.013005897725011   0.000383573249896   0.000000000000000
   0.002663491964331   0.002419578339582   0.000000000000000
  -0.002663491964331  -0.002419578339582   0.000000000000000
 
 @CHECKOUT-I, Total execution time (CPU/WALL):        0.06/       0.07 seconds.
--executable xjoda finished with status     0 in        0.11 seconds (walltime).
  The final electronic energy is      -151.298271938996493 a.u. 
  This computation required                        51322.59 seconds (walltime).
