
    -----------------------------------------------------------------------
          Psi4: An Open-Source Ab Initio Electronic Structure Package
                               Psi4 1.3.2 release

                         Git: Rev {HEAD} ecbda83 


    R. M. Parrish, L. A. Burns, D. G. A. Smith, A. C. Simmonett,
    A. E. DePrince III, E. G. Hohenstein, U. Bozkaya, A. Yu. Sokolov,
    R. Di Remigio, R. M. Richard, J. F. Gonthier, A. M. James,
    H. R. McAlexander, A. Kumar, M. Saitow, X. Wang, B. P. Pritchard,
    P. Verma, H. F. Schaefer III, K. Patkowski, R. A. King, E. F. Valeev,
    F. A. Evangelista, J. M. Turney, T. D. Crawford, and C. D. Sherrill,
    J. Chem. Theory Comput. 13(7) pp 3185--3197 (2017).
    (doi: 10.1021/acs.jctc.7b00174)


                         Additional Contributions by
    P. Kraus, H. Kruse, M. H. Lechner, M. C. Schieber, R. A. Shaw,
    A. Alenaizan, R. Galvelis, Z. L. Glick, S. Lehtola, and J. P. Misiewicz

    -----------------------------------------------------------------------


    Psi4 started on: Monday, 08 March 2021 09:41AM

    Process ID: 24378
    Host:       c2-24.compute.lan
    PSIDATADIR: /apps/gb/PSI4/1.3.2/share/psi4
    Memory:     500.0 MiB
    Threads:    12
    
  ==> Input File <==

--------------------------------------------------------------------------
memory 4 GB

molecule  {
0 1
O    0.000000000000    0.000000000000   -0.067332419257
H    0.000000000000   -0.753333404800    0.534307177684
H   -0.000000000000    0.753333404800    0.534307177684
}
set {
basis aug-cc-pvtz
reference uhf
e_convergence 10
scf_type pk
freeze_core true
}

set ccenergy {
e_convergence 10
r_convergence 10
}

e = energy('ccsd(t)')

print_out('Stephenergy {}'.format(e))

--------------------------------------------------------------------------

  Memory set to   3.725 GiB by Python driver.

*** tstart() called on c2-24.compute.lan
*** at Mon Mar  8 09:41:19 2021

   => Loading Basis Set <=

    Name: AUG-CC-PVTZ
    Role: ORBITAL
    Keyword: BASIS
    atoms 1   entry O          line   327 file /apps/gb/PSI4/1.3.2/share/psi4/basis/aug-cc-pvtz.gbs 
    atoms 2-3 entry H          line    36 file /apps/gb/PSI4/1.3.2/share/psi4/basis/aug-cc-pvtz.gbs 


         ---------------------------------------------------------
                                   SCF
               by Justin Turney, Rob Parrish, Andy Simmonett
                          and Daniel G. A. Smith
                              UHF Reference
                       12 Threads,   3814 MiB Core
         ---------------------------------------------------------

  ==> Geometry <==

    Molecular point group: c2v
    Full point group: C2v

    Geometry (in Angstrom), charge = 0, multiplicity = 1:

       Center              X                  Y                   Z               Mass       
    ------------   -----------------  -----------------  -----------------  -----------------
         O            0.000000000000     0.000000000000    -0.067332419257    15.994914619570
         H            0.000000000000    -0.753333404800     0.534307177684     1.007825032230
         H           -0.000000000000     0.753333404800     0.534307177684     1.007825032230

  Running in c2v symmetry.

  Rotational constants: A =     26.01680  B =     14.73693  C =      9.40792 [cm^-1]
  Rotational constants: A = 779964.15209  B = 441801.93261  C = 282042.26167 [MHz]
  Nuclear repulsion =    9.133371910694677

  Charge       = 0
  Multiplicity = 1
  Electrons    = 10
  Nalpha       = 5
  Nbeta        = 5

  ==> Algorithm <==

  SCF Algorithm Type is PK.
  DIIS enabled.
  MOM disabled.
  Fractional occupation disabled.
  Guess Type is SAD.
  Energy threshold   = 1.00e-10
  Density threshold  = 1.00e-08
  Integral threshold = 0.00e+00

  ==> Primary Basis <==

  Basis Set: AUG-CC-PVTZ
    Blend: AUG-CC-PVTZ
    Number of shells: 32
    Number of basis function: 92
    Number of Cartesian functions: 105
    Spherical Harmonics?: true
    Max angular momentum: 3

  ==> Pre-Iterations <==

   -------------------------------------------------------
    Irrep   Nso     Nmo     Nalpha   Nbeta   Ndocc  Nsocc
   -------------------------------------------------------
     A1        35      35       0       0       0       0
     A2        12      12       0       0       0       0
     B1        18      18       0       0       0       0
     B2        27      27       0       0       0       0
   -------------------------------------------------------
    Total      92      92       5       5       5       0
   -------------------------------------------------------

  ==> Integral Setup <==

  Using in-core PK algorithm.
   Calculation information:
      Number of atoms:                   3
      Number of AO shells:              32
      Number of primitives:             52
      Number of atomic orbitals:       105
      Number of basis functions:        92

      Integral cutoff                 1.00e-12
      Number of threads:                12

  Performing in-core PK
  Using 18305562 doubles for integral storage.
  We computed 240258 shell quartets total.
  Whereas there are 139656 unique shell quartets.
    72.04 percent of shell quartets recomputed by reordering.

  ==> DiskJK: Disk-Based J/K Matrices <==

    J tasked:                  Yes
    K tasked:                  Yes
    wK tasked:                  No
    Memory [MiB]:             2861
    Schwarz Cutoff:          1E-12

    OpenMP threads:             12

  Minimum eigenvalue in the overlap matrix is 3.9343563655E-04.
  Using Symmetric Orthogonalization.

  SCF Guess: Superposition of Atomic Densities via on-the-fly atomic UHF.

  ==> Iterations <==

                        Total Energy        Delta E     RMS |[F,P]|

   @UHF iter SAD:   -75.47195720688694   -7.54720e+01   0.00000e+00 
   @UHF iter   1:   -75.97518854027032   -5.03231e-01   9.51160e-03 DIIS
   @UHF iter   2:   -76.02757261642039   -5.23841e-02   6.52752e-03 DIIS
   @UHF iter   3:   -76.05948258471568   -3.19100e-02   4.43385e-04 DIIS
   @UHF iter   4:   -76.05987618354986   -3.93599e-04   1.07271e-04 DIIS
   @UHF iter   5:   -76.05990148407970   -2.53005e-05   2.45477e-05 DIIS
   @UHF iter   6:   -76.05990357300732   -2.08893e-06   5.35153e-06 DIIS
   @UHF iter   7:   -76.05990368145501   -1.08448e-07   9.43799e-07 DIIS
   @UHF iter   8:   -76.05990368440143   -2.94642e-09   1.58883e-07 DIIS
   @UHF iter   9:   -76.05990368446666   -6.52278e-11   3.88328e-08 DIIS
   @UHF iter  10:   -76.05990368447047   -3.80851e-12   5.86102e-09 DIIS
  Energy and wave function converged.


  ==> Post-Iterations <==

   @Spin Contamination Metric:   4.352074257E-14
   @S^2 Expected:                0.000000000E+00
   @S^2 Observed:                4.352074257E-14
   @S   Expected:                0.000000000E+00
   @S   Observed:                0.000000000E+00

    Orbital Energies [Eh]
    ---------------------

    Alpha Occupied:                                                       

       1A1   -20.569162     2A1    -1.351329     1B2    -0.710720  
       3A1    -0.587036     1B1    -0.510310  

    Alpha Virtual:                                                        

       4A1     0.029244     2B2     0.047766     5A1     0.135676  
       2B1     0.159136     6A1     0.175357     3B2     0.183418  
       4B2     0.226426     7A1     0.244978     1A2     0.265877  
       3B1     0.298500     8A1     0.309211     5B2     0.365911  
       9A1     0.436716     6B2     0.465430     7B2     0.598180  
      10A1     0.659562    11A1     0.706784     2A2     0.723761  
       4B1     0.731598    12A1     0.830963     5B1     0.847344  
      13A1     0.893313     8B2     0.911891     6B1     0.916752  
       3A2     0.922636     9B2     0.931690    14A1     0.958392  
      15A1     1.019471    10B2     1.041796     7B1     1.081509  
      11B2     1.106802     4A2     1.176728    16A1     1.182865  
      12B2     1.262307     5A2     1.508635    17A1     1.525810  
       8B1     1.577480    18A1     1.808670    13B2     1.829314  
      14B2     1.976321    19A1     2.116819     9B1     2.263242  
       6A2     2.314622    20A1     2.328829    21A1     2.417952  
      10B1     2.421468    15B2     2.444212    22A1     2.482363  
      16B2     2.676196    11B1     2.697569    23A1     2.772013  
      17B2     2.802496     7A2     2.882572    18B2     3.651706  
      24A1     3.726295     8A2     4.021471    12B1     4.078238  
      25A1     4.144676    19B2     4.249806    13B1     4.268968  
      26A1     4.365356     9A2     4.375299    14B1     4.403927  
      20B2     4.522440    27A1     4.726810    21B2     4.841940  
      10A2     5.136241    22B2     5.160039    23B2     5.229855  
      28A1     5.310019    15B1     5.517658    29A1     5.641121  
      30A1     6.184642    24B2     6.507447    16B1     6.707800  
      31A1     6.907334    17B1     7.125962    18B1     7.249905  
      25B2     7.268781    11A2     7.308464    32A1     7.339479  
      12A2     7.350357    33A1     7.518497    34A1     7.873347  
      26B2     7.922732    27B2     8.794714    35A1    15.615183  

    Beta Occupied:                                                        

       1A1   -20.569162     2A1    -1.351329     1B2    -0.710720  
       3A1    -0.587036     1B1    -0.510310  

    Beta Virtual:                                                         

       4A1     0.029244     2B2     0.047766     5A1     0.135676  
       2B1     0.159136     6A1     0.175357     3B2     0.183418  
       4B2     0.226426     7A1     0.244978     1A2     0.265877  
       3B1     0.298500     8A1     0.309211     5B2     0.365911  
       9A1     0.436716     6B2     0.465430     7B2     0.598180  
      10A1     0.659562    11A1     0.706784     2A2     0.723761  
       4B1     0.731598    12A1     0.830963     5B1     0.847344  
      13A1     0.893313     8B2     0.911891     6B1     0.916752  
       3A2     0.922636     9B2     0.931690    14A1     0.958392  
      15A1     1.019471    10B2     1.041796     7B1     1.081509  
      11B2     1.106802     4A2     1.176728    16A1     1.182865  
      12B2     1.262307     5A2     1.508635    17A1     1.525810  
       8B1     1.577480    18A1     1.808670    13B2     1.829314  
      14B2     1.976321    19A1     2.116819     9B1     2.263242  
       6A2     2.314622    20A1     2.328829    21A1     2.417952  
      10B1     2.421468    15B2     2.444212    22A1     2.482363  
      16B2     2.676196    11B1     2.697569    23A1     2.772013  
      17B2     2.802496     7A2     2.882572    18B2     3.651706  
      24A1     3.726295     8A2     4.021471    12B1     4.078238  
      25A1     4.144676    19B2     4.249806    13B1     4.268968  
      26A1     4.365356     9A2     4.375299    14B1     4.403927  
      20B2     4.522440    27A1     4.726810    21B2     4.841940  
      10A2     5.136241    22B2     5.160039    23B2     5.229855  
      28A1     5.310019    15B1     5.517658    29A1     5.641121  
      30A1     6.184642    24B2     6.507447    16B1     6.707800  
      31A1     6.907334    17B1     7.125962    18B1     7.249905  
      25B2     7.268781    11A2     7.308464    32A1     7.339479  
      12A2     7.350357    33A1     7.518497    34A1     7.873347  
      26B2     7.922732    27B2     8.794714    35A1    15.615183  

    Final Occupation by Irrep:
             A1    A2    B1    B2 
    DOCC [     3,    0,    1,    1 ]
    SOCC [     0,    0,    0,    0 ]

  @UHF Final Energy:   -76.05990368447047

   => Energetics <=

    Nuclear Repulsion Energy =              9.1333719106946774
    One-Electron Energy =                -122.9294367870189006
    Two-Electron Energy =                  37.7361611918537605
    Total Energy =                        -76.0599036844704699

  UHF NO Occupations:
  HONO-2 :    1 B1 2.0000000
  HONO-1 :    2 A1 2.0000000
  HONO-0 :    3 A1 2.0000000
  LUNO+0 :    4 A1 0.0000000
  LUNO+1 :    2 B2 0.0000000
  LUNO+2 :    2 B1 0.0000000
  LUNO+3 :    5 A1 0.0000000


Computation Completed


Properties will be evaluated at   0.000000,   0.000000,   0.000000 [a0]

Properties computed using the SCF density matrix

  Nuclear Dipole Moment: [e a0]
     X:     0.0000      Y:     0.0000      Z:     1.0015

  Electronic Dipole Moment: [e a0]
     X:     0.0000      Y:     0.0000      Z:    -0.2080

  Dipole Moment: [e a0]
     X:     0.0000      Y:     0.0000      Z:     0.7934     Total:     0.7934

  Dipole Moment: [D]
     X:     0.0000      Y:     0.0000      Z:     2.0167     Total:     2.0167


*** tstop() called on c2-24.compute.lan at Mon Mar  8 09:41:21 2021
Module time:
	user time   =      17.62 seconds =       0.29 minutes
	system time =       0.95 seconds =       0.02 minutes
	total time  =          2 seconds =       0.03 minutes
Total time:
	user time   =      17.62 seconds =       0.29 minutes
	system time =       0.95 seconds =       0.02 minutes
	total time  =          2 seconds =       0.03 minutes
 MINTS: Wrapper to libmints.
   by Justin Turney

   Calculation information:
      Number of threads:                12
      Number of atoms:                   3
      Number of AO shells:              32
      Number of SO shells:              23
      Number of primitives:             52
      Number of atomic orbitals:       105
      Number of basis functions:        92

      Number of irreps:                  4
      Integral cutoff                 0.00e+00
      Number of functions per irrep: [  35   12   18   27 ]

 OEINTS: Overlap, kinetic, potential, dipole, and quadrupole integrals
         stored in file 35.

      Computing two-electron integrals...done
      Computed 2214829 non-zero two-electron integrals.
        Stored in file 33.


*** tstart() called on c2-24.compute.lan
*** at Mon Mar  8 09:41:22 2021


	Wfn Parameters:
	--------------------
	Wavefunction         = CCSD_T
	Number of irreps     = 4
	Number of MOs        = 92
	Number of active MOs = 91
	AO-Basis             = NONE
	Semicanonical        = false
	Reference            = UHF
	Print Level          = 1

	IRREP	# MOs	# FZDC	# DOCC	# SOCC	# VIRT	# FZVR
	-----	-----	------	------	------	------	------
	 A1	   35	    1	    2	    0	    32	    0
	 A2	   12	    0	    0	    0	    12	    0
	 B1	   18	    0	    1	    0	    17	    0
	 B2	   27	    0	    1	    0	    26	    0
	Transforming integrals...
	IWL integrals will be deleted.
	(OO|OO)...
	Presorting SO-basis two-electron integrals.
	Sorting File: SO Ints (nn|nn) nbuckets = 1
	Transforming the one-electron integrals and constructing Fock matrices
	Starting AA/AB first half-transformation.
	Sorting AA/AB half-transformed integrals.
	Starting BB first half-transformation.
	Sorting BB half-transformed integrals.
	First half integral transformation complete.
	Starting AA second half-transformation.
	Starting AB second half-transformation.
	Starting BB second half-transformation.
	Two-electron integral transformation complete.
	(OO|OV)...
	Starting AA second half-transformation.
	Starting AB second half-transformation.
	Starting BB second half-transformation.
	Two-electron integral transformation complete.
	(OO|VV)...
	Starting AA second half-transformation.
	Starting AB second half-transformation.
	Starting BB second half-transformation.
	Two-electron integral transformation complete.
	(OV|OO)...
	Starting AA/AB first half-transformation.
	Sorting AA/AB half-transformed integrals.
	Starting BB first half-transformation.
	Sorting BB half-transformed integrals.
	First half integral transformation complete.
	Starting AA second half-transformation.
	Starting AB second half-transformation.
	Starting BB second half-transformation.
	Two-electron integral transformation complete.
	(OV|OV)...
	Starting AA second half-transformation.
	Starting AB second half-transformation.
	Starting BB second half-transformation.
	Two-electron integral transformation complete.
	(OV|VV)...
	Starting AA second half-transformation.
	Starting AB second half-transformation.
	Starting BB second half-transformation.
	Two-electron integral transformation complete.
	(VV|OO)...
	Starting AA/AB first half-transformation.
	Sorting AA/AB half-transformed integrals.
	Starting BB first half-transformation.
	Sorting BB half-transformed integrals.
	First half integral transformation complete.
	Starting AA second half-transformation.
	Starting AB second half-transformation.
	Starting BB second half-transformation.
	Two-electron integral transformation complete.
	(VV|OV)...
	Starting AA second half-transformation.
	Starting AB second half-transformation.
	Starting BB second half-transformation.
	Two-electron integral transformation complete.
	(VV|VV)...
	Starting AA second half-transformation.
	Starting AB second half-transformation.
	Starting BB second half-transformation.
	Two-electron integral transformation complete.
	Frozen core energy     =    -61.30101004066207

	Size of irrep 0 of <AB|CD> integrals:      1.047 (MW) /      8.372 (MB)
	Size of irrep 1 of <AB|CD> integrals:      0.682 (MW) /      5.458 (MB)
	Size of irrep 2 of <AB|CD> integrals:      0.733 (MW) /      5.862 (MB)
	Size of irrep 3 of <AB|CD> integrals:      1.073 (MW) /      8.586 (MB)
	Total:                                     3.535 (MW) /     28.279 (MB)

	Size of irrep 0 of <ab|cd> integrals:      1.047 (MW) /      8.372 (MB)
	Size of irrep 1 of <ab|cd> integrals:      0.682 (MW) /      5.458 (MB)
	Size of irrep 2 of <ab|cd> integrals:      0.733 (MW) /      5.862 (MB)
	Size of irrep 3 of <ab|cd> integrals:      1.073 (MW) /      8.586 (MB)
	Total:                                     3.535 (MW) /     28.279 (MB)

	Size of irrep 0 of <Ab|Cd> integrals:      4.550 (MW) /     36.398 (MB)
	Size of irrep 1 of <Ab|Cd> integrals:      2.729 (MW) /     21.833 (MB)
	Size of irrep 2 of <Ab|Cd> integrals:      2.931 (MW) /     23.448 (MB)
	Size of irrep 3 of <Ab|Cd> integrals:      4.293 (MW) /     34.345 (MB)
	Total:                                    14.503 (MW) /    116.023 (MB)

	Size of irrep 0 of <IA|BC> integrals:      0.228 (MW) /      1.826 (MB)
	Size of irrep 1 of <IA|BC> integrals:      0.111 (MW) /      0.885 (MB)
	Size of irrep 2 of <IA|BC> integrals:      0.134 (MW) /      1.068 (MB)
	Size of irrep 3 of <IA|BC> integrals:      0.199 (MW) /      1.591 (MB)
	Total:                                     0.671 (MW) /      5.371 (MB)

	Size of irrep 0 of <ia|bc> integrals:      0.228 (MW) /      1.826 (MB)
	Size of irrep 1 of <ia|bc> integrals:      0.111 (MW) /      0.885 (MB)
	Size of irrep 2 of <ia|bc> integrals:      0.134 (MW) /      1.068 (MB)
	Size of irrep 3 of <ia|bc> integrals:      0.199 (MW) /      1.591 (MB)
	Total:                                     0.671 (MW) /      5.371 (MB)

	Size of irrep 0 of <Ia|Bc> integrals:      0.228 (MW) /      1.826 (MB)
	Size of irrep 1 of <Ia|Bc> integrals:      0.111 (MW) /      0.885 (MB)
	Size of irrep 2 of <Ia|Bc> integrals:      0.134 (MW) /      1.068 (MB)
	Size of irrep 3 of <Ia|Bc> integrals:      0.199 (MW) /      1.591 (MB)
	Total:                                     0.671 (MW) /      5.371 (MB)

	Size of irrep 0 of <iA|bC> integrals:      0.228 (MW) /      1.826 (MB)
	Size of irrep 1 of <iA|bC> integrals:      0.111 (MW) /      0.885 (MB)
	Size of irrep 2 of <iA|bC> integrals:      0.134 (MW) /      1.068 (MB)
	Size of irrep 3 of <iA|bC> integrals:      0.199 (MW) /      1.591 (MB)
	Total:                                     0.671 (MW) /      5.371 (MB)

	Size of irrep 0 of tIjAb amplitudes:       0.013 (MW) /      0.102 (MB)
	Size of irrep 1 of tIjAb amplitudes:       0.003 (MW) /      0.026 (MB)
	Size of irrep 2 of tIjAb amplitudes:       0.007 (MW) /      0.055 (MB)
	Size of irrep 3 of tIjAb amplitudes:       0.008 (MW) /      0.066 (MB)
	Total:                                     0.031 (MW) /      0.250 (MB)

	Nuclear Rep. energy          =      9.13337191069468
	SCF energy                   =    -76.05990368447047
	One-electron energy          =    -41.46574101495443
	Two-electron (AA) energy     =      3.41606329958346
	Two-electron (BB) energy     =      3.41606329958346
	Two-electron (AB) energy     =     10.74134886128441
	Two-electron energy          =     17.57347546045132
	Reference energy             =    -76.05990368447050

*** tstop() called on c2-24.compute.lan at Mon Mar  8 09:41:32 2021
Module time:
	user time   =      73.70 seconds =       1.23 minutes
	system time =       4.17 seconds =       0.07 minutes
	total time  =         10 seconds =       0.17 minutes
Total time:
	user time   =      94.61 seconds =       1.58 minutes
	system time =       5.38 seconds =       0.09 minutes
	total time  =         13 seconds =       0.22 minutes
            **************************
            *                        *
            *        CCENERGY        *
            *                        *
            **************************

    Nuclear Rep. energy (wfn)     =    9.133371910694677
    SCF energy          (wfn)     =  -76.059903684470470
    Reference energy    (file100) =  -76.059903684470498

    Input parameters:
    -----------------
    Wave function   =     CCSD_T
    Reference wfn   =     UHF
    Brueckner       =     No
    Memory (Mbytes) =     4000.0
    Maxiter         =     50
    R_Convergence   =     1.0e-10
    E_Convergence   =     1.0e-10
    Restart         =     Yes
    DIIS            =     Yes
    AO Basis        =     NONE
    ABCD            =     NEW
    Cache Level     =     2
    Cache Type      =     LRU
    Print Level     =     1
    Num. of threads =     12
    # Amps to Print =     10
    Print MP2 Amps? =     No
    Analyze T2 Amps =     No
    Print Pair Ener =     No
    Local CC        =     No
    SCS-MP2         =     False
    SCSN-MP2        =     False
    SCS-CCSD        =     False

MP2 correlation energy -0.2690391418079124
                Solving CC Amplitude Equations
                ------------------------------
  Iter             Energy              RMS        T1Diag      D1Diag    New D1Diag    D2Diag
  ----     ---------------------    ---------   ----------  ----------  ----------   --------
     0        -0.269039141807912    0.000e+00    0.000000    0.000000    0.000000    0.000000
     1        -0.267436838861321    4.795e-02    0.012169    0.000000    0.000000    0.000000
     2        -0.272553410193935    1.324e-02    0.011944    0.000000    0.000000    0.000000
     3        -0.273784570125937    6.226e-03    0.013815    0.000000    0.000000    0.000000
     4        -0.273679334946581    1.254e-03    0.014140    0.000000    0.000000    0.000000
     5        -0.273663010207446    4.617e-04    0.014274    0.000000    0.000000    0.000000
     6        -0.273663862727689    1.150e-04    0.014304    0.000000    0.000000    0.000000
     7        -0.273662624633696    3.887e-05    0.014310    0.000000    0.000000    0.000000
     8        -0.273662666996328    1.062e-05    0.014312    0.000000    0.000000    0.000000
     9        -0.273662710891481    3.233e-06    0.014312    0.000000    0.000000    0.000000
    10        -0.273662590440397    1.295e-06    0.014312    0.000000    0.000000    0.000000
    11        -0.273662607370547    4.444e-07    0.014312    0.000000    0.000000    0.000000
    12        -0.273662602176098    1.681e-07    0.014312    0.000000    0.000000    0.000000
    13        -0.273662603915913    4.991e-08    0.014312    0.000000    0.000000    0.000000
    14        -0.273662605100962    1.323e-08    0.014312    0.000000    0.000000    0.000000
    15        -0.273662605153819    4.005e-09    0.014312    0.000000    0.000000    0.000000
    16        -0.273662605158085    1.218e-09    0.014312    0.000000    0.000000    0.000000
    17        -0.273662605167646    4.173e-10    0.014312    0.000000    0.000000    0.000000
    18        -0.273662605164938    1.087e-10    0.014312    0.000000    0.000000    0.000000
    19        -0.273662605164671    3.279e-11    0.014312    0.000000    0.000000    0.000000

    Iterations converged.


    Largest TIA Amplitudes:
              2  44        -0.0152255757
              2  45        -0.0131515740
              1   1         0.0084777610
              1   4        -0.0077164929
              3  73         0.0054545695
              2  54         0.0042855393
              3  69         0.0038273227
              3  80         0.0036596053
              2  47        -0.0036550468
              1  23         0.0033991566

    Largest Tia Amplitudes:
              2  44        -0.0152255757
              2  45        -0.0131515740
              1   1         0.0084777610
              1   4        -0.0077164929
              3  73         0.0054545695
              2  54         0.0042855393
              3  69         0.0038273227
              3  80         0.0036596053
              2  47        -0.0036550468
              1  23         0.0033991566

    Largest TIJAB Amplitudes:
      2   1  46   7        -0.0095972814
      3   1  66   6        -0.0094039753
      3   2  33   6        -0.0084271793
      3   1  65   9         0.0080727386
      2   1  49   9         0.0079188508
      3   2  65  49        -0.0077206895
      3   2  65  44        -0.0074650181
      3   1  66  13         0.0074572755
      3   2  65  45        -0.0072252543
      2   1  48   9         0.0071173553

    Largest Tijab Amplitudes:
      2   1  46   7        -0.0095972814
      3   1  66   6        -0.0094039753
      3   2  33   6        -0.0084271793
      3   1  65   9         0.0080727386
      2   1  49   9         0.0079188508
      3   2  65  49        -0.0077206895
      3   2  65  44        -0.0074650181
      3   1  66  13         0.0074572755
      3   2  65  45        -0.0072252543
      2   1  48   9         0.0071173553

    Largest TIjAb Amplitudes:
      3   3  65  65        -0.0220616952
      1   1   9   9        -0.0196319229
      2   2  49  49        -0.0157861127
      3   3  65  69        -0.0157230095
      3   3  69  65        -0.0157230095
      3   3  66  66        -0.0148865371
      1   1  66  66        -0.0137128525
      2   2  48  48        -0.0133722484
      3   3  69  69        -0.0131693914
      1   3   9  65         0.0128225714

    SCF energy       (wfn)                    =  -76.059903684470470
    Reference energy (file100)                =  -76.059903684470498

    Opposite-spin MP2 correlation energy      =   -0.203738154498216
    Same-spin MP2 correlation energy          =   -0.065300987309697
    MP2 correlation energy                    =   -0.269039141807912
      * MP2 total energy                      =  -76.328942826278407

    Opposite-spin CCSD correlation energy     =   -0.215733257826604
    Same-spin CCSD correlation energy         =   -0.057929347338067
    CCSD correlation energy                   =   -0.273662605164671
      * CCSD total energy                     =  -76.333566289635172

            **************************
            *                        *
            *        CCTRIPLES       *
            *                        *
            **************************


    Wave function   =    CCSD_T
    Reference wfn   =      UHF

    Nuclear Rep. energy (wfn)                =    9.133371910694677
    SCF energy          (wfn)                =  -76.059903684470470
    Reference energy    (file100)            =  -76.059903684470498
    CCSD energy         (file100)            =   -0.273662605164671
    Total CCSD energy   (file100)            =  -76.333566289635172

    Number of ijk index combinations:
    Spin Case AAA:                                   4
    Spin Case BBB:                                   4
    Spin Case AAB:                                  24
    Spin Case ABB:                                  24
    AAA (T) energy                             =   -0.000194031346944
    BBB (T) energy                             =   -0.000194031346944
    AAB (T) energy                             =   -0.004158985102187
    ABB (T) energy                             =   -0.004158985102187
    (T) energy                                   =   -0.008706032898263
      * CCSD(T) total energy                     =  -76.342272322533432

Stephenergy -76.34227232253343
    Psi4 stopped on: Monday, 08 March 2021 09:41AM
    Psi4 wall time for execution: 0:00:21.18

*** Psi4 exiting successfully. Buy a developer a beer!
