
    -----------------------------------------------------------------------
          Psi4: An Open-Source Ab Initio Electronic Structure Package
                               Psi4 1.3.2 release

                         Git: Rev {HEAD} ecbda83 


    R. M. Parrish, L. A. Burns, D. G. A. Smith, A. C. Simmonett,
    A. E. DePrince III, E. G. Hohenstein, U. Bozkaya, A. Yu. Sokolov,
    R. Di Remigio, R. M. Richard, J. F. Gonthier, A. M. James,
    H. R. McAlexander, A. Kumar, M. Saitow, X. Wang, B. P. Pritchard,
    P. Verma, H. F. Schaefer III, K. Patkowski, R. A. King, E. F. Valeev,
    F. A. Evangelista, J. M. Turney, T. D. Crawford, and C. D. Sherrill,
    J. Chem. Theory Comput. 13(7) pp 3185--3197 (2017).
    (doi: 10.1021/acs.jctc.7b00174)


                         Additional Contributions by
    P. Kraus, H. Kruse, M. H. Lechner, M. C. Schieber, R. A. Shaw,
    A. Alenaizan, R. Galvelis, Z. L. Glick, S. Lehtola, and J. P. Misiewicz

    -----------------------------------------------------------------------


    Psi4 started on: Monday, 08 March 2021 05:06PM

    Process ID: 53588
    Host:       c2-13.compute.lan
    PSIDATADIR: /apps/gb/PSI4/1.3.2/share/psi4
    Memory:     500.0 MiB
    Threads:    12
    
  ==> Input File <==

--------------------------------------------------------------------------
memory 4 GB

molecule  {
0 3
O    0.000000000000    0.000000000000    1.254673970700
H    0.000000000000   -0.759608112600    1.844553051300
H   -0.000000000000    0.759608112600    1.844553051300
O    0.000000000000   -0.000000000000   -1.487121193100
}
set {
basis aug-cc-pvtz
reference uhf
e_convergence 10
scf_type pk
freeze_core true
}

set ccenergy {
e_convergence 10
r_convergence 10
}

e = energy('ccsd(t)')

print_out('Stephenergy {}'.format(e))

--------------------------------------------------------------------------

  Memory set to   3.725 GiB by Python driver.

*** tstart() called on c2-13.compute.lan
*** at Mon Mar  8 17:06:31 2021

   => Loading Basis Set <=

    Name: AUG-CC-PVTZ
    Role: ORBITAL
    Keyword: BASIS
    atoms 1, 4 entry O          line   327 file /apps/gb/PSI4/1.3.2/share/psi4/basis/aug-cc-pvtz.gbs 
    atoms 2-3  entry H          line    36 file /apps/gb/PSI4/1.3.2/share/psi4/basis/aug-cc-pvtz.gbs 


         ---------------------------------------------------------
                                   SCF
               by Justin Turney, Rob Parrish, Andy Simmonett
                          and Daniel G. A. Smith
                              UHF Reference
                       12 Threads,   3814 MiB Core
         ---------------------------------------------------------

  ==> Geometry <==

    Molecular point group: c2v
    Full point group: C2v

    Geometry (in Angstrom), charge = 0, multiplicity = 3:

       Center              X                  Y                   Z               Mass       
    ------------   -----------------  -----------------  -----------------  -----------------
         O            0.000000000000     0.000000000000     1.254673970673    15.994914619570
         H            0.000000000000    -0.759608112600     1.844553051273     1.007825032230
         H           -0.000000000000     0.759608112600     1.844553051273     1.007825032230
         O            0.000000000000     0.000000000000    -1.487121193127    15.994914619570

  Running in c2v symmetry.

  Rotational constants: A =     14.49446  B =      0.25007  C =      0.24583 [cm^-1]
  Rotational constants: A = 434533.11001  B =   7497.03396  C =   7369.88082 [MHz]
  Nuclear repulsion =   23.981883649880707

  Charge       = 0
  Multiplicity = 3
  Electrons    = 18
  Nalpha       = 10
  Nbeta        = 8

  ==> Algorithm <==

  SCF Algorithm Type is PK.
  DIIS enabled.
  MOM disabled.
  Fractional occupation disabled.
  Guess Type is SAD.
  Energy threshold   = 1.00e-10
  Density threshold  = 1.00e-08
  Integral threshold = 0.00e+00

  ==> Primary Basis <==

  Basis Set: AUG-CC-PVTZ
    Blend: AUG-CC-PVTZ
    Number of shells: 46
    Number of basis function: 138
    Number of Cartesian functions: 160
    Spherical Harmonics?: true
    Max angular momentum: 3

  ==> Pre-Iterations <==

   -------------------------------------------------------
    Irrep   Nso     Nmo     Nalpha   Nbeta   Ndocc  Nsocc
   -------------------------------------------------------
     A1        54      54       0       0       0       0
     A2        17      17       0       0       0       0
     B1        29      29       0       0       0       0
     B2        38      38       0       0       0       0
   -------------------------------------------------------
    Total     138     138      10       8       8       2
   -------------------------------------------------------

  ==> Integral Setup <==

  Using in-core PK algorithm.
   Calculation information:
      Number of atoms:                   4
      Number of AO shells:              46
      Number of primitives:             82
      Number of atomic orbitals:       160
      Number of basis functions:       138

      Integral cutoff                 1.00e-12
      Number of threads:                12

  Performing in-core PK
  Using 91996872 doubles for integral storage.
  We computed 912528 shell quartets total.
  Whereas there are 584821 unique shell quartets.
    56.04 percent of shell quartets recomputed by reordering.

  ==> DiskJK: Disk-Based J/K Matrices <==

    J tasked:                  Yes
    K tasked:                  Yes
    wK tasked:                  No
    Memory [MiB]:             2861
    Schwarz Cutoff:          1E-12

    OpenMP threads:             12

  Minimum eigenvalue in the overlap matrix is 3.2069519165E-04.
  Using Symmetric Orthogonalization.

  SCF Guess: Superposition of Atomic Densities via on-the-fly atomic UHF.

  ==> Iterations <==

                        Total Energy        Delta E     RMS |[F,P]|

   @UHF iter SAD:  -149.38237468789760   -1.49382e+02   0.00000e+00 
   @UHF iter   1:  -150.76961240500987   -1.38724e+00   6.68291e-03 DIIS
   @UHF iter   2:  -150.84066459792859   -7.10522e-02   4.24081e-03 DIIS
   @UHF iter   3:  -150.87181282470380   -3.11482e-02   5.63159e-04 DIIS
   @UHF iter   4:  -150.87322359921131   -1.41077e-03   1.70550e-04 DIIS
   @UHF iter   5:  -150.87335827444403   -1.34675e-04   6.96349e-05 DIIS
   @UHF iter   6:  -150.87339119211472   -3.29177e-05   2.09213e-05 DIIS
   @UHF iter   7:  -150.87339430787915   -3.11576e-06   5.40517e-06 DIIS
   @UHF iter   8:  -150.87339453588356   -2.28004e-07   1.53551e-06 DIIS
   @UHF iter   9:  -150.87339455399155   -1.81080e-08   4.03049e-07 DIIS
   @UHF iter  10:  -150.87339455533720   -1.34565e-09   1.96256e-07 DIIS
   @UHF iter  11:  -150.87339455576529   -4.28088e-10   7.30327e-08 DIIS
   @UHF iter  12:  -150.87339455582372   -5.84350e-11   1.55205e-08 DIIS
   @UHF iter  13:  -150.87339455582611   -2.38742e-12   4.54599e-09 DIIS
  Energy and wave function converged.


  ==> Post-Iterations <==

   @Spin Contamination Metric:   9.551693187E-03
   @S^2 Expected:                2.000000000E+00
   @S^2 Observed:                2.009551693E+00
   @S   Expected:                1.000000000E+00
   @S   Observed:                1.000000000E+00

    Orbital Energies [Eh]
    ---------------------

    Alpha Occupied:                                                       

       1A1   -20.683867     2A1   -20.571344     3A1    -1.393414  
       4A1    -1.355400     1B2    -0.718661     5A1    -0.688088  
       1B1    -0.684659     6A1    -0.586318     2B2    -0.585667  
       2B1    -0.514141  

    Alpha Virtual:                                                        

       7A1     0.029554     3B2     0.047668     8A1     0.118176  
       3B1     0.154314     9A1     0.159416     4B2     0.180240  
       5B2     0.187405     4B1     0.192879    10A1     0.198252  
       1A2     0.263674     6B2     0.264541    11A1     0.265750  
      12A1     0.314412     5B1     0.327168    13A1     0.375956  
       7B2     0.380439    14A1     0.449856     8B2     0.464232  
       9B2     0.600106     6B1     0.644409    15A1     0.647958  
       2A2     0.658257    16A1     0.667204    17A1     0.700694  
       3A2     0.721873    10B2     0.725024     7B1     0.769385  
      18A1     0.792662    19A1     0.820923     8B1     0.837738  
      20A1     0.860422     9B1     0.901332    11B2     0.918470  
       4A2     0.925164    12B2     0.947048    13B2     0.982211  
      21A1     0.991986    10B1     1.016921    22A1     1.046991  
      14B2     1.051664    11B1     1.124426     5A2     1.176944  
      23A1     1.192277    15B2     1.202017    16B2     1.331751  
      24A1     1.335022    25A1     1.456069     6A2     1.507178  
      12B1     1.595289    26A1     1.669853    27A1     1.812564  
      17B2     1.822743    18B2     1.975924    28A1     2.041203  
      13B1     2.048704    19B2     2.054633     7A2     2.058893  
      14B1     2.059428    29A1     2.079341    30A1     2.115203  
       8A2     2.119768    20B2     2.139438    31A1     2.142532  
      15B1     2.149377    32A1     2.253933    21B2     2.275971  
      16B1     2.302351     9A2     2.311505    17B1     2.440206  
      33A1     2.477193    22B2     2.482321    34A1     2.495225  
      35A1     2.698587    18B1     2.717357    23B2     2.721936  
      36A1     2.847394    24B2     2.860282    10A2     2.879865  
      25B2     3.693822    37A1     3.752531    11A2     4.013275  
      19B1     4.079205    20B1     4.100465    38A1     4.142757  
      26B2     4.185389    27B2     4.283375    21B1     4.288875  
      39A1     4.358282    12A2     4.382363    40A1     4.429180  
      22B1     4.455136    28B2     4.515493    41A1     4.794537  
      29B2     4.839514    30B2     5.141722    13A2     5.143361  
      31B2     5.247004    42A1     5.339777    23B1     5.515585  
      43A1     5.686396    44A1     6.200149    24B1     6.391391  
      14A2     6.411436    45A1     6.412182    32B2     6.424641  
      25B1     6.436382    33B2     6.493551    46A1     6.544850  
      34B2     6.581076    26B1     6.719841    27B1     6.904621  
      47A1     6.908949    15A2     6.925326    48A1     6.947297  
      35B2     6.987754    49A1     7.046527    28B1     7.134393  
      29B1     7.279415    16A2     7.305580    36B2     7.306962  
      17A2     7.352126    50A1     7.438101    51A1     7.542577  
      52A1     7.908268    37B2     7.915316    38B2     8.805224  
      53A1     8.894141    54A1    15.770454  

    Beta Occupied:                                                        

       1A1   -20.604979     2A1   -20.570830     3A1    -1.354663  
       4A1    -1.050570     1B2    -0.718294     5A1    -0.588375  
       1B1    -0.513408     2B2    -0.495060  

    Beta Virtual:                                                         

       6A1     0.029394     3B2     0.047751     2B1     0.086951  
       7A1     0.092128     8A1     0.141421     9A1     0.166981  
       3B1     0.170795     4B2     0.180836     5B2     0.191048  
      10A1     0.225731     4B1     0.253604     1A2     0.263676  
       6B2     0.264974    11A1     0.288882    12A1     0.316828  
       5B1     0.328438     7B2     0.380609    13A1     0.386601  
      14A1     0.450932     8B2     0.464446     9B2     0.601773  
      15A1     0.660393     6B1     0.668215     2A2     0.672592  
      16A1     0.674151    17A1     0.717977     3A2     0.722382  
      10B2     0.737174     7B1     0.781012    18A1     0.807297  
       8B1     0.847016    19A1     0.851982     4A2     0.925590  
      20A1     0.928152    11B2     0.936491    12B2     0.953665  
      13B2     0.986123     9B1     0.988010    21A1     0.999078  
      14B2     1.052802    22A1     1.053652    10B1     1.061907  
      11B1     1.141746     5A2     1.177150    23A1     1.193730  
      15B2     1.204708    16B2     1.334221    24A1     1.391596  
      25A1     1.493447     6A2     1.507628    12B1     1.597293  
      26A1     1.701143    27A1     1.818018    17B2     1.823074  
      18B2     1.977434    28A1     2.070630    13B1     2.071313  
      19B2     2.072024     7A2     2.083605    29A1     2.099428  
      14B1     2.101911    30A1     2.155495    20B2     2.187042  
       8A2     2.202878    31A1     2.210033    15B1     2.261622  
       9A2     2.311636    32A1     2.313133    16B1     2.317249  
      21B2     2.325925    17B1     2.449050    33A1     2.483479  
      22B2     2.485152    34A1     2.529524    35A1     2.705388  
      18B1     2.719189    23B2     2.722860    36A1     2.860220  
      24B2     2.860405    10A2     2.879904    25B2     3.694779  
      37A1     3.752667    11A2     4.013307    19B1     4.081554  
      38A1     4.174412    26B2     4.220461    20B1     4.259727  
      21B1     4.294374    27B2     4.294701    12A2     4.382480  
      39A1     4.424720    22B1     4.460589    40A1     4.477599  
      28B2     4.515589    41A1     4.806180    29B2     4.839687  
      30B2     5.141921    13A2     5.143446    31B2     5.247497  
      42A1     5.340429    23B1     5.515709    43A1     5.691463  
      44A1     6.201714    24B1     6.486364    14A2     6.488261  
      32B2     6.488390    45A1     6.495270    25B1     6.500618  
      33B2     6.527659    34B2     6.610908    46A1     6.616423  
      26B1     6.727900    47A1     6.966638    15A2     7.038872  
      48A1     7.042970    27B1     7.087116    35B2     7.099584  
      28B1     7.134862    49A1     7.173356    29B1     7.283555  
      16A2     7.305875    36B2     7.307174    17A2     7.352585  
      50A1     7.440967    51A1     7.543707    52A1     7.908910  
      37B2     7.915701    38B2     8.805632    53A1     8.973185  
      54A1    15.770810  

    Final Occupation by Irrep:
             A1    A2    B1    B2 
    DOCC [     5,    0,    1,    2 ]
    SOCC [     1,    0,    1,    0 ]

  @UHF Final Energy:  -150.87339455582611

   => Energetics <=

    Nuclear Repulsion Energy =             23.9818836498807073
    One-Electron Energy =                -256.0328171450216246
    Two-Electron Energy =                  81.1775389393148146
    Total Energy =                       -150.8733945558261098

  UHF NO Occupations:
  HONO-2 :    5 A1 1.9970477
  HONO-1 :    2 B1 1.0000000
  HONO-0 :    6 A1 1.0000000
  LUNO+0 :    7 A1 0.0029523
  LUNO+1 :    3 B2 0.0018002
  LUNO+2 :    8 A1 0.0000251
  LUNO+3 :    9 A1 0.0000024


Computation Completed


Properties will be evaluated at   0.000000,   0.000000,   0.000000 [a0]

Properties computed using the SCF density matrix

  Nuclear Dipole Moment: [e a0]
     X:     0.0000      Y:     0.0000      Z:     3.4573

  Electronic Dipole Moment: [e a0]
     X:     0.0000      Y:     0.0000      Z:    -2.6185

  Dipole Moment: [e a0]
     X:     0.0000      Y:     0.0000      Z:     0.8388     Total:     0.8388

  Dipole Moment: [D]
     X:     0.0000      Y:     0.0000      Z:     2.1321     Total:     2.1321


*** tstop() called on c2-13.compute.lan at Mon Mar  8 17:06:36 2021
Module time:
	user time   =      37.13 seconds =       0.62 minutes
	system time =       2.36 seconds =       0.04 minutes
	total time  =          5 seconds =       0.08 minutes
Total time:
	user time   =      37.13 seconds =       0.62 minutes
	system time =       2.36 seconds =       0.04 minutes
	total time  =          5 seconds =       0.08 minutes
 MINTS: Wrapper to libmints.
   by Justin Turney

   Calculation information:
      Number of threads:                12
      Number of atoms:                   4
      Number of AO shells:              46
      Number of SO shells:              37
      Number of primitives:             82
      Number of atomic orbitals:       160
      Number of basis functions:       138

      Number of irreps:                  4
      Integral cutoff                 0.00e+00
      Number of functions per irrep: [  54   17   29   38 ]

 OEINTS: Overlap, kinetic, potential, dipole, and quadrupole integrals
         stored in file 35.

      Computing two-electron integrals...done
      Computed 11336987 non-zero two-electron integrals.
        Stored in file 33.


*** tstart() called on c2-13.compute.lan
*** at Mon Mar  8 17:06:39 2021


	Wfn Parameters:
	--------------------
	Wavefunction         = CCSD_T
	Number of irreps     = 4
	Number of MOs        = 138
	Number of active MOs = 136
	AO-Basis             = NONE
	Semicanonical        = false
	Reference            = UHF
	Print Level          = 1

	IRREP	# MOs	# FZDC	# DOCC	# SOCC	# VIRT	# FZVR
	-----	-----	------	------	------	------	------
	 A1	   54	    2	    3	    1	    48	    0
	 A2	   17	    0	    0	    0	    17	    0
	 B1	   29	    0	    1	    1	    27	    0
	 B2	   38	    0	    2	    0	    36	    0
	Transforming integrals...
	IWL integrals will be deleted.
	(OO|OO)...
	Presorting SO-basis two-electron integrals.
	Sorting File: SO Ints (nn|nn) nbuckets = 1
	Transforming the one-electron integrals and constructing Fock matrices
	Starting AA/AB first half-transformation.
	Sorting AA/AB half-transformed integrals.
	Starting BB first half-transformation.
	Sorting BB half-transformed integrals.
	First half integral transformation complete.
	Starting AA second half-transformation.
	Starting AB second half-transformation.
	Starting BB second half-transformation.
	Two-electron integral transformation complete.
	(OO|OV)...
	Starting AA second half-transformation.
	Starting AB second half-transformation.
	Starting BB second half-transformation.
	Two-electron integral transformation complete.
	(OO|VV)...
	Starting AA second half-transformation.
	Starting AB second half-transformation.
	Starting BB second half-transformation.
	Two-electron integral transformation complete.
	(OV|OO)...
	Starting AA/AB first half-transformation.
	Sorting AA/AB half-transformed integrals.
	Starting BB first half-transformation.
	Sorting BB half-transformed integrals.
	First half integral transformation complete.
	Starting AA second half-transformation.
	Starting AB second half-transformation.
	Starting BB second half-transformation.
	Two-electron integral transformation complete.
	(OV|OV)...
	Starting AA second half-transformation.
	Starting AB second half-transformation.
	Starting BB second half-transformation.
	Two-electron integral transformation complete.
	(OV|VV)...
	Starting AA second half-transformation.
	Starting AB second half-transformation.
	Starting BB second half-transformation.
	Two-electron integral transformation complete.
	(VV|OO)...
	Starting AA/AB first half-transformation.
	Sorting AA/AB half-transformed integrals.
	Starting BB first half-transformation.
	Sorting BB half-transformed integrals.
	First half integral transformation complete.
	Starting AA second half-transformation.
	Starting AB second half-transformation.
	Starting BB second half-transformation.
	Two-electron integral transformation complete.
	(VV|OV)...
	Starting AA second half-transformation.
	Starting AB second half-transformation.
	Starting BB second half-transformation.
	Two-electron integral transformation complete.
	(VV|VV)...
	Starting AA second half-transformation.
	Starting AB second half-transformation.
	Starting BB second half-transformation.
	Two-electron integral transformation complete.
	Frozen core energy     =   -126.43519983150382

	Size of irrep 0 of <AB|CD> integrals:      5.040 (MW) /     40.320 (MB)
	Size of irrep 1 of <AB|CD> integrals:      3.197 (MW) /     25.576 (MB)
	Size of irrep 2 of <AB|CD> integrals:      3.640 (MW) /     29.124 (MB)
	Size of irrep 3 of <AB|CD> integrals:      4.783 (MW) /     38.264 (MB)
	Total:                                    16.660 (MW) /    133.283 (MB)

	Size of irrep 0 of <ab|cd> integrals:      5.382 (MW) /     43.059 (MB)
	Size of irrep 1 of <ab|cd> integrals:      3.389 (MW) /     27.114 (MB)
	Size of irrep 2 of <ab|cd> integrals:      3.936 (MW) /     31.490 (MB)
	Size of irrep 3 of <ab|cd> integrals:      5.018 (MW) /     40.141 (MB)
	Total:                                    17.726 (MW) /    141.804 (MB)

	Size of irrep 0 of <Ab|Cd> integrals:     22.024 (MW) /    176.194 (MB)
	Size of irrep 1 of <Ab|Cd> integrals:     13.170 (MW) /    105.357 (MB)
	Size of irrep 2 of <Ab|Cd> integrals:     15.140 (MW) /    121.119 (MB)
	Size of irrep 3 of <Ab|Cd> integrals:     19.598 (MW) /    156.787 (MB)
	Total:                                    69.932 (MW) /    559.457 (MB)

	Size of irrep 0 of <IA|BC> integrals:      1.469 (MW) /     11.748 (MB)
	Size of irrep 1 of <IA|BC> integrals:      0.694 (MW) /      5.550 (MB)
	Size of irrep 2 of <IA|BC> integrals:      0.908 (MW) /      7.266 (MB)
	Size of irrep 3 of <IA|BC> integrals:      1.198 (MW) /      9.588 (MB)
	Total:                                     4.269 (MW) /     34.152 (MB)

	Size of irrep 0 of <ia|bc> integrals:      1.178 (MW) /      9.426 (MB)
	Size of irrep 1 of <ia|bc> integrals:      0.527 (MW) /      4.212 (MB)
	Size of irrep 2 of <ia|bc> integrals:      0.663 (MW) /      5.301 (MB)
	Size of irrep 3 of <ia|bc> integrals:      0.999 (MW) /      7.992 (MB)
	Total:                                     3.366 (MW) /     26.931 (MB)

	Size of irrep 0 of <Ia|Bc> integrals:      1.521 (MW) /     12.164 (MB)
	Size of irrep 1 of <Ia|Bc> integrals:      0.711 (MW) /      5.690 (MB)
	Size of irrep 2 of <Ia|Bc> integrals:      0.949 (MW) /      7.595 (MB)
	Size of irrep 3 of <Ia|Bc> integrals:      1.222 (MW) /      9.775 (MB)
	Total:                                     4.403 (MW) /     35.225 (MB)

	Size of irrep 0 of <iA|bC> integrals:      1.140 (MW) /      9.123 (MB)
	Size of irrep 1 of <iA|bC> integrals:      0.512 (MW) /      4.094 (MB)
	Size of irrep 2 of <iA|bC> integrals:      0.634 (MW) /      5.074 (MB)
	Size of irrep 3 of <iA|bC> integrals:      0.978 (MW) /      7.827 (MB)
	Total:                                     3.265 (MW) /     26.118 (MB)

	Size of irrep 0 of tIjAb amplitudes:       0.084 (MW) /      0.676 (MB)
	Size of irrep 1 of tIjAb amplitudes:       0.022 (MW) /      0.174 (MB)
	Size of irrep 2 of tIjAb amplitudes:       0.039 (MW) /      0.311 (MB)
	Size of irrep 3 of tIjAb amplitudes:       0.062 (MW) /      0.496 (MB)
	Total:                                     0.207 (MW) /      1.657 (MB)

	Nuclear Rep. energy          =     23.98188364988071
	SCF energy                   =   -150.87339455582611
	One-electron energy          =    -85.59343680344708
	Two-electron (AA) energy     =     10.39577587420658
	Two-electron (BB) energy     =      5.48185943373367
	Two-electron (AB) energy     =     21.29572312130235
	Two-electron energy          =     37.17335842924260
	Reference energy             =   -150.87339455582759

*** tstop() called on c2-13.compute.lan at Mon Mar  8 17:07:59 2021
Module time:
	user time   =     515.74 seconds =       8.60 minutes
	system time =      39.68 seconds =       0.66 minutes
	total time  =         80 seconds =       1.33 minutes
Total time:
	user time   =     558.19 seconds =       9.30 minutes
	system time =      42.71 seconds =       0.71 minutes
	total time  =         88 seconds =       1.47 minutes
            **************************
            *                        *
            *        CCENERGY        *
            *                        *
            **************************

    Nuclear Rep. energy (wfn)     =   23.981883649880707
    SCF energy          (wfn)     = -150.873394555826110
    Reference energy    (file100) = -150.873394555827588

    Input parameters:
    -----------------
    Wave function   =     CCSD_T
    Reference wfn   =     UHF
    Brueckner       =     No
    Memory (Mbytes) =     4000.0
    Maxiter         =     50
    R_Convergence   =     1.0e-10
    E_Convergence   =     1.0e-10
    Restart         =     Yes
    DIIS            =     Yes
    AO Basis        =     NONE
    ABCD            =     NEW
    Cache Level     =     2
    Cache Type      =     LRU
    Print Level     =     1
    Num. of threads =     12
    # Amps to Print =     10
    Print MP2 Amps? =     No
    Analyze T2 Amps =     No
    Print Pair Ener =     No
    Local CC        =     No
    SCS-MP2         =     False
    SCSN-MP2        =     False
    SCS-CCSD        =     False

MP2 correlation energy -0.4163819529704569
                Solving CC Amplitude Equations
                ------------------------------
  Iter             Energy              RMS        T1Diag      D1Diag    New D1Diag    D2Diag
  ----     ---------------------    ---------   ----------  ----------  ----------   --------
     0        -0.416381952970457    0.000e+00    0.000000    0.000000    0.000000    0.000000
     1        -0.427150400729487    5.706e-02    0.010609    0.000000    0.000000    0.000000
     2        -0.435254922738477    1.706e-02    0.011108    0.000000    0.000000    0.000000
     3        -0.437411363225725    8.820e-03    0.013046    0.000000    0.000000    0.000000
     4        -0.437284392867700    2.703e-03    0.013464    0.000000    0.000000    0.000000
     5        -0.437274960454369    1.411e-03    0.013664    0.000000    0.000000    0.000000
     6        -0.437304368593152    5.327e-04    0.013693    0.000000    0.000000    0.000000
     7        -0.437307356769377    2.166e-04    0.013688    0.000000    0.000000    0.000000
     8        -0.437308275205197    6.691e-05    0.013683    0.000000    0.000000    0.000000
     9        -0.437308967625335    2.411e-05    0.013683    0.000000    0.000000    0.000000
    10        -0.437308056769907    9.252e-06    0.013682    0.000000    0.000000    0.000000
    11        -0.437308223081149    4.082e-06    0.013682    0.000000    0.000000    0.000000
    12        -0.437308183589051    1.497e-06    0.013682    0.000000    0.000000    0.000000
    13        -0.437308192243347    7.588e-07    0.013682    0.000000    0.000000    0.000000
    14        -0.437308215886654    3.201e-07    0.013682    0.000000    0.000000    0.000000
    15        -0.437308217427836    1.152e-07    0.013682    0.000000    0.000000    0.000000
    16        -0.437308218090675    5.322e-08    0.013682    0.000000    0.000000    0.000000
    17        -0.437308218633931    2.018e-08    0.013682    0.000000    0.000000    0.000000
    18        -0.437308218464761    1.096e-08    0.013682    0.000000    0.000000    0.000000
    19        -0.437308218220334    4.205e-09    0.013682    0.000000    0.000000    0.000000
    20        -0.437308218205879    2.243e-09    0.013682    0.000000    0.000000    0.000000
    21        -0.437308218182225    8.476e-10    0.013682    0.000000    0.000000    0.000000
    22        -0.437308218181251    3.367e-10    0.013682    0.000000    0.000000    0.000000
    23        -0.437308218180812    1.761e-10    0.013682    0.000000    0.000000    0.000000
    24        -0.437308218180612    7.228e-11    0.013682    0.000000    0.000000    0.000000

    Iterations converged.


    Largest TIA Amplitudes:
              5  65        -0.0134040284
              5  67        -0.0111562284
              7  94         0.0105479687
              5  66        -0.0096460384
              3   1         0.0075037465
              4  65        -0.0074932874
              2   3         0.0072164555
              4  66         0.0071810352
              3   5        -0.0055337435
              3   6         0.0054759407

    Largest Tia Amplitudes:
              3  67        -0.0147692455
              2   2         0.0138056273
              3  69        -0.0107577367
              5  96         0.0080275555
              3  66        -0.0079875237
              2   1        -0.0070576334
              2   7         0.0057521383
              2   6        -0.0054922576
              1  25        -0.0053960333
              4 109         0.0053895860

    Largest TIJAB Amplitudes:
      7   4 100  71         0.0141794323
      7   4  55  23        -0.0135842027
      7   2 100  12        -0.0119283594
      4   2  71  12         0.0107867632
      6   5  50   9        -0.0085932215
      7   4  49  23         0.0082526095
      6   5  97  72        -0.0081340675
      7   4  94  71         0.0079115986
      7   4  55   8        -0.0076599217
      7   4 100  82        -0.0073897712

    Largest Tijab Amplitudes:
      5   1  66  56         0.0086603543
      5   1  66  50        -0.0085398709
      5   1  68  56         0.0081662737
      4   3  99  67        -0.0076418286
      5   1  68  50        -0.0074466032
      4   2  99   2         0.0072344852
      4   3  99  73        -0.0072211566
      4   2  99  12         0.0069549121
      4   2 100   9        -0.0067588145
      4   3  51  10        -0.0064777380

    Largest TIjAb Amplitudes:
      6   4  97  99        -0.0218380052
      7   5 100 103        -0.0211943601
      7   5 100 102         0.0194512367
      7   1  55  66        -0.0180104788
      7   5 100  96        -0.0171339277
      7   1  55  68        -0.0168332691
      4   1  23  66        -0.0165797392
      5   3  72  73        -0.0161474210
      4   1  23  68        -0.0154481266
      7   5  55  56        -0.0145307438

    SCF energy       (wfn)                    = -150.873394555826110
    Reference energy (file100)                = -150.873394555827588

    Opposite-spin MP2 correlation energy      =   -0.314495844320070
    Same-spin MP2 correlation energy          =   -0.101886108650387
    MP2 correlation energy                    =   -0.416381952970457
      * MP2 total energy                      = -151.289776508798042

    Opposite-spin CCSD correlation energy     =   -0.342155085719199
    Same-spin CCSD correlation energy         =   -0.095153132461413
    CCSD correlation energy                   =   -0.437308218180612
      * CCSD total energy                     = -151.310702774008206

            **************************
            *                        *
            *        CCTRIPLES       *
            *                        *
            **************************


    Wave function   =    CCSD_T
    Reference wfn   =      UHF

    Nuclear Rep. energy (wfn)                =   23.981883649880707
    SCF energy          (wfn)                = -150.873394555826110
    Reference energy    (file100)            = -150.873394555827588
    CCSD energy         (file100)            =   -0.437308218180612
    Total CCSD energy   (file100)            = -151.310702774008206

    Number of ijk index combinations:
    Spin Case AAA:                                  56
    Spin Case BBB:                                  20
    Spin Case AAB:                                 168
    Spin Case ABB:                                 120
    AAA (T) energy                             =   -0.000396351082593
    BBB (T) energy                             =   -0.000202894255355
    AAB (T) energy                             =   -0.006716881850493
    ABB (T) energy                             =   -0.004992784554735
    (T) energy                                   =   -0.012308911743177
      * CCSD(T) total energy                     = -151.323011685751368

Stephenergy -151.32301168575137
    Psi4 stopped on: Monday, 08 March 2021 05:09PM
    Psi4 wall time for execution: 0:02:46.87

*** Psi4 exiting successfully. Buy a developer a beer!
