
    -----------------------------------------------------------------------
          Psi4: An Open-Source Ab Initio Electronic Structure Package
                               Psi4 1.3.2 release

                         Git: Rev {HEAD} ecbda83 


    R. M. Parrish, L. A. Burns, D. G. A. Smith, A. C. Simmonett,
    A. E. DePrince III, E. G. Hohenstein, U. Bozkaya, A. Yu. Sokolov,
    R. Di Remigio, R. M. Richard, J. F. Gonthier, A. M. James,
    H. R. McAlexander, A. Kumar, M. Saitow, X. Wang, B. P. Pritchard,
    P. Verma, H. F. Schaefer III, K. Patkowski, R. A. King, E. F. Valeev,
    F. A. Evangelista, J. M. Turney, T. D. Crawford, and C. D. Sherrill,
    J. Chem. Theory Comput. 13(7) pp 3185--3197 (2017).
    (doi: 10.1021/acs.jctc.7b00174)


                         Additional Contributions by
    P. Kraus, H. Kruse, M. H. Lechner, M. C. Schieber, R. A. Shaw,
    A. Alenaizan, R. Galvelis, Z. L. Glick, S. Lehtola, and J. P. Misiewicz

    -----------------------------------------------------------------------


    Psi4 started on: Monday, 08 March 2021 05:37PM

    Process ID: 1092
    Host:       c2-1.compute.lan
    PSIDATADIR: /apps/gb/PSI4/1.3.2/share/psi4
    Memory:     500.0 MiB
    Threads:    12
    
  ==> Input File <==

--------------------------------------------------------------------------
memory 4 GB

molecule  {
0 3
O    0.000000000000    0.000000000000    1.268861218882
H    0.000000000000   -0.759959574100    1.859715534101
H   -0.000000000000    0.759959574100    1.859715534101
O    0.000000000000    0.000000000000   -1.503219189859
}
set {
basis aug-cc-pvtz
reference uhf
e_convergence 10
scf_type pk
freeze_core true
}

set ccenergy {
e_convergence 10
r_convergence 10
}

e = energy('ccsd(t)')

print_out('Stephenergy {}'.format(e))

--------------------------------------------------------------------------

  Memory set to   3.725 GiB by Python driver.

*** tstart() called on c2-1.compute.lan
*** at Mon Mar  8 17:37:44 2021

   => Loading Basis Set <=

    Name: AUG-CC-PVTZ
    Role: ORBITAL
    Keyword: BASIS
    atoms 1, 4 entry O          line   327 file /apps/gb/PSI4/1.3.2/share/psi4/basis/aug-cc-pvtz.gbs 
    atoms 2-3  entry H          line    36 file /apps/gb/PSI4/1.3.2/share/psi4/basis/aug-cc-pvtz.gbs 


         ---------------------------------------------------------
                                   SCF
               by Justin Turney, Rob Parrish, Andy Simmonett
                          and Daniel G. A. Smith
                              UHF Reference
                       12 Threads,   3814 MiB Core
         ---------------------------------------------------------

  ==> Geometry <==

    Molecular point group: c2v
    Full point group: C2v

    Geometry (in Angstrom), charge = 0, multiplicity = 3:

       Center              X                  Y                   Z               Mass       
    ------------   -----------------  -----------------  -----------------  -----------------
         O           -0.000000000000     0.000000000000     1.268861218882    15.994914619570
         H            0.000000000000    -0.759959574100     1.859715534101     1.007825032230
         H           -0.000000000000     0.759959574100     1.859715534101     1.007825032230
         O           -0.000000000000     0.000000000000    -1.503219189859    15.994914619570

  Running in c2v symmetry.

  Rotational constants: A =     14.48106  B =      0.24479  C =      0.24072 [cm^-1]
  Rotational constants: A = 434131.28247  B =   7338.54695  C =   7216.55839 [MHz]
  Nuclear repulsion =   23.816798456602889

  Charge       = 0
  Multiplicity = 3
  Electrons    = 18
  Nalpha       = 10
  Nbeta        = 8

  ==> Algorithm <==

  SCF Algorithm Type is PK.
  DIIS enabled.
  MOM disabled.
  Fractional occupation disabled.
  Guess Type is SAD.
  Energy threshold   = 1.00e-10
  Density threshold  = 1.00e-08
  Integral threshold = 0.00e+00

  ==> Primary Basis <==

  Basis Set: AUG-CC-PVTZ
    Blend: AUG-CC-PVTZ
    Number of shells: 46
    Number of basis function: 138
    Number of Cartesian functions: 160
    Spherical Harmonics?: true
    Max angular momentum: 3

  ==> Pre-Iterations <==

   -------------------------------------------------------
    Irrep   Nso     Nmo     Nalpha   Nbeta   Ndocc  Nsocc
   -------------------------------------------------------
     A1        54      54       0       0       0       0
     A2        17      17       0       0       0       0
     B1        29      29       0       0       0       0
     B2        38      38       0       0       0       0
   -------------------------------------------------------
    Total     138     138      10       8       8       2
   -------------------------------------------------------

  ==> Integral Setup <==

  Using in-core PK algorithm.
   Calculation information:
      Number of atoms:                   4
      Number of AO shells:              46
      Number of primitives:             82
      Number of atomic orbitals:       160
      Number of basis functions:       138

      Integral cutoff                 1.00e-12
      Number of threads:                12

  Performing in-core PK
  Using 91996872 doubles for integral storage.
  We computed 909701 shell quartets total.
  Whereas there are 584821 unique shell quartets.
    55.55 percent of shell quartets recomputed by reordering.

  ==> DiskJK: Disk-Based J/K Matrices <==

    J tasked:                  Yes
    K tasked:                  Yes
    wK tasked:                  No
    Memory [MiB]:             2861
    Schwarz Cutoff:          1E-12

    OpenMP threads:             12

  Minimum eigenvalue in the overlap matrix is 3.2445781937E-04.
  Using Symmetric Orthogonalization.

  SCF Guess: Superposition of Atomic Densities via on-the-fly atomic UHF.

  ==> Iterations <==

                        Total Energy        Delta E     RMS |[F,P]|

   @UHF iter SAD:  -149.38043619578917   -1.49380e+02   0.00000e+00 
   @UHF iter   1:  -150.76972000833763   -1.38928e+00   6.69530e-03 DIIS
   @UHF iter   2:  -150.84048340240560   -7.07634e-02   4.26127e-03 DIIS
   @UHF iter   3:  -150.87187325032949   -3.13898e-02   5.59527e-04 DIIS
   @UHF iter   4:  -150.87325232951085   -1.37908e-03   1.71230e-04 DIIS
   @UHF iter   5:  -150.87338680851397   -1.34479e-04   6.98409e-05 DIIS
   @UHF iter   6:  -150.87341995260394   -3.31441e-05   2.08750e-05 DIIS
   @UHF iter   7:  -150.87342305912321   -3.10652e-06   5.37374e-06 DIIS
   @UHF iter   8:  -150.87342328495208   -2.25829e-07   1.49907e-06 DIIS
   @UHF iter   9:  -150.87342330210933   -1.71572e-08   3.74885e-07 DIIS
   @UHF iter  10:  -150.87342330324961   -1.14028e-09   1.80977e-07 DIIS
   @UHF iter  11:  -150.87342330360858   -3.58966e-10   7.03196e-08 DIIS
   @UHF iter  12:  -150.87342330366405   -5.54792e-11   1.50566e-08 DIIS
   @UHF iter  13:  -150.87342330366596   -1.90425e-12   4.50252e-09 DIIS
  Energy and wave function converged.


  ==> Post-Iterations <==

   @Spin Contamination Metric:   9.531797090E-03
   @S^2 Expected:                2.000000000E+00
   @S^2 Observed:                2.009531797E+00
   @S   Expected:                1.000000000E+00
   @S   Observed:                1.000000000E+00

    Orbital Energies [Eh]
    ---------------------

    Alpha Occupied:                                                       

       1A1   -20.684470     2A1   -20.571438     3A1    -1.393897  
       4A1    -1.354863     1B2    -0.717924     5A1    -0.688179  
       1B1    -0.685197     6A1    -0.586485     2B2    -0.586206  
       2B1    -0.513934  

    Alpha Virtual:                                                        

       7A1     0.029530     3B2     0.047673     8A1     0.118583  
       3B1     0.154121     9A1     0.159409     4B2     0.180271  
       5B2     0.186974     4B1     0.192788    10A1     0.198041  
       1A2     0.263748     6B2     0.263959    11A1     0.264844  
      12A1     0.314324     5B1     0.326564    13A1     0.376006  
       7B2     0.380373    14A1     0.449811     8B2     0.464133  
       9B2     0.599906     6B1     0.643786    15A1     0.647510  
       2A2     0.658158    16A1     0.666476    17A1     0.696532  
       3A2     0.721848    10B2     0.722605     7B1     0.767566  
      18A1     0.792578    19A1     0.818608     8B1     0.837804  
      20A1     0.860891     9B1     0.901207    11B2     0.918512  
       4A2     0.924670    12B2     0.946291    13B2     0.979754  
      21A1     0.989492    10B1     1.012933    22A1     1.046083  
      14B2     1.051131    11B1     1.121798     5A2     1.176615  
      23A1     1.191469    15B2     1.199011    16B2     1.327272  
      24A1     1.336797    25A1     1.443780     6A2     1.506855  
      12B1     1.593246    26A1     1.666391    27A1     1.813157  
      17B2     1.822330    18B2     1.975195    28A1     2.040770  
      13B1     2.047816    19B2     2.054095     7A2     2.056926  
      14B1     2.058938    29A1     2.078992    30A1     2.114938  
       8A2     2.118781    20B2     2.135410    31A1     2.139632  
      15B1     2.145511    32A1     2.252263    21B2     2.267740  
      16B1     2.303333     9A2     2.311526    17B1     2.434359  
      33A1     2.470876    22B2     2.482929    34A1     2.486396  
      35A1     2.695556    18B1     2.716079    23B2     2.720855  
      36A1     2.840474    24B2     2.860949    10A2     2.879563  
      25B2     3.689382    37A1     3.750749    11A2     4.012875  
      19B1     4.078240    20B1     4.099205    38A1     4.138584  
      26B2     4.183217    27B2     4.280391    21B1     4.287378  
      39A1     4.351094    12A2     4.381143    40A1     4.426476  
      22B1     4.450550    28B2     4.515135    41A1     4.788343  
      29B2     4.837457    30B2     5.140723    13A2     5.140952  
      31B2     5.244622    42A1     5.335555    23B1     5.513279  
      43A1     5.680747    44A1     6.198253    24B1     6.389073  
      45A1     6.409044    14A2     6.410242    32B2     6.423663  
      25B1     6.435553    33B2     6.485954    46A1     6.536048  
      34B2     6.581772    26B1     6.716122    27B1     6.902453  
      47A1     6.905735    15A2     6.924575    48A1     6.940048  
      35B2     6.985824    49A1     7.046697    28B1     7.133354  
      29B1     7.277382    36B2     7.303788    16A2     7.303932  
      17A2     7.351659    50A1     7.438323    51A1     7.538947  
      52A1     7.905285    37B2     7.913001    38B2     8.800070  
      53A1     8.862585    54A1    15.737654  

    Beta Occupied:                                                        

       1A1   -20.605603     2A1   -20.570973     3A1    -1.354172  
       4A1    -1.051090     1B2    -0.717593     5A1    -0.588242  
       1B1    -0.513269     2B2    -0.495624  

    Beta Virtual:                                                         

       6A1     0.029368     3B2     0.047754     2B1     0.086550  
       7A1     0.091941     8A1     0.140981     9A1     0.167017  
       3B1     0.170708     4B2     0.180908     5B2     0.190555  
      10A1     0.225531     4B1     0.253308     1A2     0.263751  
       6B2     0.264406    11A1     0.288435    12A1     0.316686  
       5B1     0.327868     7B2     0.380546    13A1     0.386414  
      14A1     0.450910     8B2     0.464329     9B2     0.601521  
      15A1     0.660454     6B1     0.667626     2A2     0.672569  
      16A1     0.673612    17A1     0.713783     3A2     0.722321  
      10B2     0.734813     7B1     0.778844    18A1     0.805963  
       8B1     0.846905    19A1     0.850511     4A2     0.925058  
      20A1     0.928168    11B2     0.936306    12B2     0.953287  
      13B2     0.983496     9B1     0.986712    21A1     0.996601  
      14B2     1.052257    22A1     1.052272    10B1     1.060542  
      11B1     1.137934     5A2     1.176812    23A1     1.192952  
      15B2     1.201752    16B2     1.329664    24A1     1.393466  
      25A1     1.482939     6A2     1.507275    12B1     1.595220  
      26A1     1.696698    27A1     1.818201    17B2     1.822667  
      18B2     1.976565    28A1     2.070216    13B1     2.070861  
      19B2     2.071522     7A2     2.081571    29A1     2.099120  
      14B1     2.100354    30A1     2.154999    20B2     2.181246  
       8A2     2.201993    31A1     2.207789    15B1     2.258542  
      32A1     2.309242     9A2     2.311661    16B1     2.319116  
      21B2     2.319412    17B1     2.442250    33A1     2.482935  
      22B2     2.485827    34A1     2.515896    35A1     2.702755  
      18B1     2.717790    23B2     2.721754    36A1     2.852745  
      24B2     2.861131    10A2     2.879596    25B2     3.690251  
      37A1     3.750880    11A2     4.012904    19B1     4.080467  
      38A1     4.170359    26B2     4.218473    20B1     4.259113  
      27B2     4.291615    21B1     4.292625    12A2     4.381249  
      39A1     4.425273    22B1     4.455723    40A1     4.468208  
      28B2     4.515212    41A1     4.799205    29B2     4.837615  
      30B2     5.140900    13A2     5.141027    31B2     5.245034  
      42A1     5.336208    23B1     5.513390    43A1     5.685269  
      44A1     6.199886    24B1     6.485653    14A2     6.487071  
      32B2     6.487809    45A1     6.493211    25B1     6.499251  
      33B2     6.521361    46A1     6.607661    34B2     6.609930  
      26B1     6.723088    47A1     6.955749    15A2     7.038126  
      48A1     7.041986    27B1     7.084967    35B2     7.097680  
      28B1     7.133779    49A1     7.174011    29B1     7.281541  
      36B2     7.303975    16A2     7.304194    17A2     7.352081  
      50A1     7.441063    51A1     7.540048    52A1     7.905855  
      37B2     7.913351    38B2     8.800440    53A1     8.941979  
      54A1    15.737973  

    Final Occupation by Irrep:
             A1    A2    B1    B2 
    DOCC [     5,    0,    1,    2 ]
    SOCC [     1,    0,    1,    0 ]

  @UHF Final Energy:  -150.87342330366596

   => Energetics <=

    Nuclear Repulsion Energy =             23.8167984566028892
    One-Electron Energy =                -255.7012838672449107
    Two-Electron Energy =                  81.0110621069760555
    Total Energy =                       -150.8734233036659589

  UHF NO Occupations:
  HONO-2 :    5 A1 1.9970492
  HONO-1 :    2 B1 1.0000000
  HONO-0 :    6 A1 1.0000000
  LUNO+0 :    7 A1 0.0029508
  LUNO+1 :    3 B2 0.0017953
  LUNO+2 :    8 A1 0.0000218
  LUNO+3 :    9 A1 0.0000024


Computation Completed


Properties will be evaluated at   0.000000,   0.000000,   0.000000 [a0]

Properties computed using the SCF density matrix

  Nuclear Dipole Moment: [e a0]
     X:    -0.0000      Y:     0.0000      Z:     3.4857

  Electronic Dipole Moment: [e a0]
     X:     0.0000      Y:     0.0000      Z:    -2.6480

  Dipole Moment: [e a0]
     X:    -0.0000      Y:     0.0000      Z:     0.8377     Total:     0.8377

  Dipole Moment: [D]
     X:    -0.0000      Y:     0.0000      Z:     2.1293     Total:     2.1293


*** tstop() called on c2-1.compute.lan at Mon Mar  8 17:37:48 2021
Module time:
	user time   =      44.58 seconds =       0.74 minutes
	system time =       1.86 seconds =       0.03 minutes
	total time  =          4 seconds =       0.07 minutes
Total time:
	user time   =      44.58 seconds =       0.74 minutes
	system time =       1.86 seconds =       0.03 minutes
	total time  =          4 seconds =       0.07 minutes
 MINTS: Wrapper to libmints.
   by Justin Turney

   Calculation information:
      Number of threads:                12
      Number of atoms:                   4
      Number of AO shells:              46
      Number of SO shells:              37
      Number of primitives:             82
      Number of atomic orbitals:       160
      Number of basis functions:       138

      Number of irreps:                  4
      Integral cutoff                 0.00e+00
      Number of functions per irrep: [  54   17   29   38 ]

 OEINTS: Overlap, kinetic, potential, dipole, and quadrupole integrals
         stored in file 35.

      Computing two-electron integrals...done
      Computed 11522214 non-zero two-electron integrals.
        Stored in file 33.


*** tstart() called on c2-1.compute.lan
*** at Mon Mar  8 17:37:51 2021


	Wfn Parameters:
	--------------------
	Wavefunction         = CCSD_T
	Number of irreps     = 4
	Number of MOs        = 138
	Number of active MOs = 136
	AO-Basis             = NONE
	Semicanonical        = false
	Reference            = UHF
	Print Level          = 1

	IRREP	# MOs	# FZDC	# DOCC	# SOCC	# VIRT	# FZVR
	-----	-----	------	------	------	------	------
	 A1	   54	    2	    3	    1	    48	    0
	 A2	   17	    0	    0	    0	    17	    0
	 B1	   29	    0	    1	    1	    27	    0
	 B2	   38	    0	    2	    0	    36	    0
	Transforming integrals...
	IWL integrals will be deleted.
	(OO|OO)...
	Presorting SO-basis two-electron integrals.
	Sorting File: SO Ints (nn|nn) nbuckets = 1
	Transforming the one-electron integrals and constructing Fock matrices
	Starting AA/AB first half-transformation.
	Sorting AA/AB half-transformed integrals.
	Starting BB first half-transformation.
	Sorting BB half-transformed integrals.
	First half integral transformation complete.
	Starting AA second half-transformation.
	Starting AB second half-transformation.
	Starting BB second half-transformation.
	Two-electron integral transformation complete.
	(OO|OV)...
	Starting AA second half-transformation.
	Starting AB second half-transformation.
	Starting BB second half-transformation.
	Two-electron integral transformation complete.
	(OO|VV)...
	Starting AA second half-transformation.
	Starting AB second half-transformation.
	Starting BB second half-transformation.
	Two-electron integral transformation complete.
	(OV|OO)...
	Starting AA/AB first half-transformation.
	Sorting AA/AB half-transformed integrals.
	Starting BB first half-transformation.
	Sorting BB half-transformed integrals.
	First half integral transformation complete.
	Starting AA second half-transformation.
	Starting AB second half-transformation.
	Starting BB second half-transformation.
	Two-electron integral transformation complete.
	(OV|OV)...
	Starting AA second half-transformation.
	Starting AB second half-transformation.
	Starting BB second half-transformation.
	Two-electron integral transformation complete.
	(OV|VV)...
	Starting AA second half-transformation.
	Starting AB second half-transformation.
	Starting BB second half-transformation.
	Two-electron integral transformation complete.
	(VV|OO)...
	Starting AA/AB first half-transformation.
	Sorting AA/AB half-transformed integrals.
	Starting BB first half-transformation.
	Sorting BB half-transformed integrals.
	First half integral transformation complete.
	Starting AA second half-transformation.
	Starting AB second half-transformation.
	Starting BB second half-transformation.
	Two-electron integral transformation complete.
	(VV|OV)...
	Starting AA second half-transformation.
	Starting AB second half-transformation.
	Starting BB second half-transformation.
	Two-electron integral transformation complete.
	(VV|VV)...
	Starting AA second half-transformation.
	Starting AB second half-transformation.
	Starting BB second half-transformation.
	Two-electron integral transformation complete.
	Frozen core energy     =   -126.36867166584777

	Size of irrep 0 of <AB|CD> integrals:      5.040 (MW) /     40.320 (MB)
	Size of irrep 1 of <AB|CD> integrals:      3.197 (MW) /     25.576 (MB)
	Size of irrep 2 of <AB|CD> integrals:      3.640 (MW) /     29.124 (MB)
	Size of irrep 3 of <AB|CD> integrals:      4.783 (MW) /     38.264 (MB)
	Total:                                    16.660 (MW) /    133.283 (MB)

	Size of irrep 0 of <ab|cd> integrals:      5.382 (MW) /     43.059 (MB)
	Size of irrep 1 of <ab|cd> integrals:      3.389 (MW) /     27.114 (MB)
	Size of irrep 2 of <ab|cd> integrals:      3.936 (MW) /     31.490 (MB)
	Size of irrep 3 of <ab|cd> integrals:      5.018 (MW) /     40.141 (MB)
	Total:                                    17.726 (MW) /    141.804 (MB)

	Size of irrep 0 of <Ab|Cd> integrals:     22.024 (MW) /    176.194 (MB)
	Size of irrep 1 of <Ab|Cd> integrals:     13.170 (MW) /    105.357 (MB)
	Size of irrep 2 of <Ab|Cd> integrals:     15.140 (MW) /    121.119 (MB)
	Size of irrep 3 of <Ab|Cd> integrals:     19.598 (MW) /    156.787 (MB)
	Total:                                    69.932 (MW) /    559.457 (MB)

	Size of irrep 0 of <IA|BC> integrals:      1.469 (MW) /     11.748 (MB)
	Size of irrep 1 of <IA|BC> integrals:      0.694 (MW) /      5.550 (MB)
	Size of irrep 2 of <IA|BC> integrals:      0.908 (MW) /      7.266 (MB)
	Size of irrep 3 of <IA|BC> integrals:      1.198 (MW) /      9.588 (MB)
	Total:                                     4.269 (MW) /     34.152 (MB)

	Size of irrep 0 of <ia|bc> integrals:      1.178 (MW) /      9.426 (MB)
	Size of irrep 1 of <ia|bc> integrals:      0.527 (MW) /      4.212 (MB)
	Size of irrep 2 of <ia|bc> integrals:      0.663 (MW) /      5.301 (MB)
	Size of irrep 3 of <ia|bc> integrals:      0.999 (MW) /      7.992 (MB)
	Total:                                     3.366 (MW) /     26.931 (MB)

	Size of irrep 0 of <Ia|Bc> integrals:      1.521 (MW) /     12.164 (MB)
	Size of irrep 1 of <Ia|Bc> integrals:      0.711 (MW) /      5.690 (MB)
	Size of irrep 2 of <Ia|Bc> integrals:      0.949 (MW) /      7.595 (MB)
	Size of irrep 3 of <Ia|Bc> integrals:      1.222 (MW) /      9.775 (MB)
	Total:                                     4.403 (MW) /     35.225 (MB)

	Size of irrep 0 of <iA|bC> integrals:      1.140 (MW) /      9.123 (MB)
	Size of irrep 1 of <iA|bC> integrals:      0.512 (MW) /      4.094 (MB)
	Size of irrep 2 of <iA|bC> integrals:      0.634 (MW) /      5.074 (MB)
	Size of irrep 3 of <iA|bC> integrals:      0.978 (MW) /      7.827 (MB)
	Total:                                     3.265 (MW) /     26.118 (MB)

	Size of irrep 0 of tIjAb amplitudes:       0.084 (MW) /      0.676 (MB)
	Size of irrep 1 of tIjAb amplitudes:       0.022 (MW) /      0.174 (MB)
	Size of irrep 2 of tIjAb amplitudes:       0.039 (MW) /      0.311 (MB)
	Size of irrep 3 of tIjAb amplitudes:       0.062 (MW) /      0.496 (MB)
	Total:                                     0.207 (MW) /      1.657 (MB)

	Nuclear Rep. energy          =     23.81679845660289
	SCF energy                   =   -150.87342330366596
	One-electron energy          =    -85.39642404969612
	Two-electron (AA) energy     =     10.36301461467226
	Two-electron (BB) energy     =      5.46594399901281
	Two-electron (AB) energy     =     21.24591534158899
	Two-electron energy          =     37.07487395527406
	Reference energy             =   -150.87342330366695

*** tstop() called on c2-1.compute.lan at Mon Mar  8 17:38:12 2021
Module time:
	user time   =      88.97 seconds =       1.48 minutes
	system time =      12.63 seconds =       0.21 minutes
	total time  =         21 seconds =       0.35 minutes
Total time:
	user time   =     139.32 seconds =       2.32 minutes
	system time =      15.01 seconds =       0.25 minutes
	total time  =         28 seconds =       0.47 minutes
            **************************
            *                        *
            *        CCENERGY        *
            *                        *
            **************************

    Nuclear Rep. energy (wfn)     =   23.816798456602889
    SCF energy          (wfn)     = -150.873423303665959
    Reference energy    (file100) = -150.873423303666954

    Input parameters:
    -----------------
    Wave function   =     CCSD_T
    Reference wfn   =     UHF
    Brueckner       =     No
    Memory (Mbytes) =     4000.0
    Maxiter         =     50
    R_Convergence   =     1.0e-10
    E_Convergence   =     1.0e-10
    Restart         =     Yes
    DIIS            =     Yes
    AO Basis        =     NONE
    ABCD            =     NEW
    Cache Level     =     2
    Cache Type      =     LRU
    Print Level     =     1
    Num. of threads =     12
    # Amps to Print =     10
    Print MP2 Amps? =     No
    Analyze T2 Amps =     No
    Print Pair Ener =     No
    Local CC        =     No
    SCS-MP2         =     False
    SCSN-MP2        =     False
    SCS-CCSD        =     False

MP2 correlation energy -0.4163720862878975
                Solving CC Amplitude Equations
                ------------------------------
  Iter             Energy              RMS        T1Diag      D1Diag    New D1Diag    D2Diag
  ----     ---------------------    ---------   ----------  ----------  ----------   --------
     0        -0.416372086287898    0.000e+00    0.000000    0.000000    0.000000    0.000000
     1        -0.427125333815163    5.705e-02    0.010594    0.000000    0.000000    0.000000
     2        -0.435233684904577    1.705e-02    0.011086    0.000000    0.000000    0.000000
     3        -0.437390008215699    8.787e-03    0.013011    0.000000    0.000000    0.000000
     4        -0.437263497229003    2.682e-03    0.013420    0.000000    0.000000    0.000000
     5        -0.437253992173158    1.395e-03    0.013614    0.000000    0.000000    0.000000
     6        -0.437283040001035    5.300e-04    0.013640    0.000000    0.000000    0.000000
     7        -0.437286014688773    2.148e-04    0.013634    0.000000    0.000000    0.000000
     8        -0.437286961424592    6.686e-05    0.013629    0.000000    0.000000    0.000000
     9        -0.437287646752799    2.390e-05    0.013629    0.000000    0.000000    0.000000
    10        -0.437286746528187    9.227e-06    0.013629    0.000000    0.000000    0.000000
    11        -0.437286912841969    4.009e-06    0.013628    0.000000    0.000000    0.000000
    12        -0.437286873086909    1.450e-06    0.013628    0.000000    0.000000    0.000000
    13        -0.437286881122446    7.330e-07    0.013628    0.000000    0.000000    0.000000
    14        -0.437286903763956    3.062e-07    0.013628    0.000000    0.000000    0.000000
    15        -0.437286905416441    1.114e-07    0.013628    0.000000    0.000000    0.000000
    16        -0.437286905992065    5.006e-08    0.013628    0.000000    0.000000    0.000000
    17        -0.437286906565824    1.929e-08    0.013628    0.000000    0.000000    0.000000
    18        -0.437286906419925    1.007e-08    0.013628    0.000000    0.000000    0.000000
    19        -0.437286906208189    3.972e-09    0.013628    0.000000    0.000000    0.000000
    20        -0.437286906196892    2.142e-09    0.013628    0.000000    0.000000    0.000000
    21        -0.437286906173298    8.177e-10    0.013628    0.000000    0.000000    0.000000
    22        -0.437286906171779    3.281e-10    0.013628    0.000000    0.000000    0.000000
    23        -0.437286906170852    1.705e-10    0.013628    0.000000    0.000000    0.000000
    24        -0.437286906170687    6.994e-11    0.013628    0.000000    0.000000    0.000000

    Iterations converged.


    Largest TIA Amplitudes:
              5  65        -0.0133623545
              5  67        -0.0111911627
              7  94         0.0103576000
              5  66        -0.0097521361
              4  65        -0.0074712338
              3   1         0.0074190588
              2   3         0.0072043665
              4  66         0.0071558287
              3   5        -0.0056130029
              3   6         0.0053743893

    Largest Tia Amplitudes:
              3  67        -0.0148694875
              2   2         0.0134385921
              3  69        -0.0108022926
              5  96         0.0079569349
              3  66        -0.0077015558
              2   1        -0.0068067338
              2   7         0.0055970977
              2   6        -0.0055875272
              1  25        -0.0054478928
              4 109         0.0054044595

    Largest TIJAB Amplitudes:
      7   4 100  71         0.0142744925
      7   4  55  23        -0.0135871807
      7   2 100  12        -0.0121155359
      4   2  71  12         0.0110085186
      6   5  50   9        -0.0086466638
      7   4  49  23         0.0082498790
      6   5  97  72        -0.0080914955
      7   4  94  71         0.0078383483
      7   4  55   8        -0.0076376477
      7   4 100  82        -0.0074220733

    Largest Tijab Amplitudes:
      5   1  66  56         0.0086743866
      5   1  66  50        -0.0085693693
      5   1  68  56         0.0081612871
      4   3  99  67        -0.0076644033
      5   1  68  50        -0.0074555654
      4   3  99  73        -0.0073213649
      4   2  99   2         0.0072000526
      4   2  99  12         0.0068716157
      4   2 100   9        -0.0067334720
      4   3  51  10        -0.0065143501

    Largest TIjAb Amplitudes:
      6   4  97  99        -0.0219256949
      7   5 100 103        -0.0217785640
      7   5 100 102         0.0189241964
      7   1  55  66        -0.0180610423
      7   5 100  96        -0.0170480725
      7   1  55  68        -0.0168443367
      4   1  23  66        -0.0167115541
      5   3  72  73        -0.0162606822
      4   1  23  68        -0.0155448060
      7   5  55  56        -0.0145626734

    SCF energy       (wfn)                    = -150.873423303665959
    Reference energy (file100)                = -150.873423303666954

    Opposite-spin MP2 correlation energy      =   -0.314506325500392
    Same-spin MP2 correlation energy          =   -0.101865760787505
    MP2 correlation energy                    =   -0.416372086287898
      * MP2 total energy                      = -151.289795389954861

    Opposite-spin CCSD correlation energy     =   -0.342169836705518
    Same-spin CCSD correlation energy         =   -0.095117069465170
    CCSD correlation energy                   =   -0.437286906170687
      * CCSD total energy                     = -151.310710209837652

            **************************
            *                        *
            *        CCTRIPLES       *
            *                        *
            **************************


    Wave function   =    CCSD_T
    Reference wfn   =      UHF

    Nuclear Rep. energy (wfn)                =   23.816798456602889
    SCF energy          (wfn)                = -150.873423303665959
    Reference energy    (file100)            = -150.873423303666954
    CCSD energy         (file100)            =   -0.437286906170687
    Total CCSD energy   (file100)            = -151.310710209837652

    Number of ijk index combinations:
    Spin Case AAA:                                  56
    Spin Case BBB:                                  20
    Spin Case AAB:                                 168
    Spin Case ABB:                                 120
    AAA (T) energy                             =   -0.000395922374195
    BBB (T) energy                             =   -0.000202337775361
    AAB (T) energy                             =   -0.006715764509142
    ABB (T) energy                             =   -0.004990996545789
    (T) energy                                   =   -0.012305021204488
      * CCSD(T) total energy                     = -151.323015231042120

Stephenergy -151.32301523104212
    Psi4 stopped on: Monday, 08 March 2021 05:39PM
    Psi4 wall time for execution: 0:01:21.44

*** Psi4 exiting successfully. Buy a developer a beer!
