
    -----------------------------------------------------------------------
          Psi4: An Open-Source Ab Initio Electronic Structure Package
                               Psi4 1.3.2 release

                         Git: Rev {HEAD} ecbda83 


    R. M. Parrish, L. A. Burns, D. G. A. Smith, A. C. Simmonett,
    A. E. DePrince III, E. G. Hohenstein, U. Bozkaya, A. Yu. Sokolov,
    R. Di Remigio, R. M. Richard, J. F. Gonthier, A. M. James,
    H. R. McAlexander, A. Kumar, M. Saitow, X. Wang, B. P. Pritchard,
    P. Verma, H. F. Schaefer III, K. Patkowski, R. A. King, E. F. Valeev,
    F. A. Evangelista, J. M. Turney, T. D. Crawford, and C. D. Sherrill,
    J. Chem. Theory Comput. 13(7) pp 3185--3197 (2017).
    (doi: 10.1021/acs.jctc.7b00174)


                         Additional Contributions by
    P. Kraus, H. Kruse, M. H. Lechner, M. C. Schieber, R. A. Shaw,
    A. Alenaizan, R. Galvelis, Z. L. Glick, S. Lehtola, and J. P. Misiewicz

    -----------------------------------------------------------------------


    Psi4 started on: Wednesday, 10 March 2021 10:52AM

    Process ID: 119597
    Host:       c4-16.compute.lan
    PSIDATADIR: /apps/gb/PSI4/1.3.2/share/psi4
    Memory:     500.0 MiB
    Threads:    12
    
  ==> Input File <==

--------------------------------------------------------------------------
memory 4 GB

molecule  {
0 3
O    0.000000000000    0.000000000000   -1.647931525455
H    0.000000000000   -0.754282208900   -1.052345815599
H   -0.000000000000    0.754282208900   -1.052345815599
O    0.000000000000    0.000000000000    1.780546232160
}
set {
basis aug-cc-pvtz
reference uhf
e_convergence 10
scf_type pk
freeze_core true
}

set ccenergy {
e_convergence 10
r_convergence 10
}

e = energy('ccsd(t)')

print_out('Stephenergy {}'.format(e))

--------------------------------------------------------------------------

  Memory set to   3.725 GiB by Python driver.

*** tstart() called on c4-16.compute.lan
*** at Wed Mar 10 10:52:41 2021

   => Loading Basis Set <=

    Name: AUG-CC-PVTZ
    Role: ORBITAL
    Keyword: BASIS
    atoms 1, 4 entry O          line   327 file /apps/gb/PSI4/1.3.2/share/psi4/basis/aug-cc-pvtz.gbs 
    atoms 2-3  entry H          line    36 file /apps/gb/PSI4/1.3.2/share/psi4/basis/aug-cc-pvtz.gbs 


         ---------------------------------------------------------
                                   SCF
               by Justin Turney, Rob Parrish, Andy Simmonett
                          and Daniel G. A. Smith
                              UHF Reference
                       12 Threads,   3814 MiB Core
         ---------------------------------------------------------

  ==> Geometry <==

    Molecular point group: c2v
    Full point group: C2v

    Geometry (in Angstrom), charge = 0, multiplicity = 3:

       Center              X                  Y                   Z               Mass       
    ------------   -----------------  -----------------  -----------------  -----------------
         O           -0.000000000000     0.000000000000    -1.647931525455    15.994914619570
         H            0.000000000000    -0.754282208900    -1.052345815599     1.007825032230
         H           -0.000000000000     0.754282208900    -1.052345815599     1.007825032230
         O           -0.000000000000     0.000000000000     1.780546232160    15.994914619570

  Running in c2v symmetry.

  Rotational constants: A =     14.69987  B =      0.17491  C =      0.17285 [cm^-1]
  Rotational constants: A = 440691.15514  B =   5243.68308  C =   5182.02337 [MHz]
  Nuclear repulsion =   21.926924888453232

  Charge       = 0
  Multiplicity = 3
  Electrons    = 18
  Nalpha       = 10
  Nbeta        = 8

  ==> Algorithm <==

  SCF Algorithm Type is PK.
  DIIS enabled.
  MOM disabled.
  Fractional occupation disabled.
  Guess Type is SAD.
  Energy threshold   = 1.00e-10
  Density threshold  = 1.00e-08
  Integral threshold = 0.00e+00

  ==> Primary Basis <==

  Basis Set: AUG-CC-PVTZ
    Blend: AUG-CC-PVTZ
    Number of shells: 46
    Number of basis function: 138
    Number of Cartesian functions: 160
    Spherical Harmonics?: true
    Max angular momentum: 3

  ==> Pre-Iterations <==

   -------------------------------------------------------
    Irrep   Nso     Nmo     Nalpha   Nbeta   Ndocc  Nsocc
   -------------------------------------------------------
     A1        54      54       0       0       0       0
     A2        17      17       0       0       0       0
     B1        29      29       0       0       0       0
     B2        38      38       0       0       0       0
   -------------------------------------------------------
    Total     138     138      10       8       8       2
   -------------------------------------------------------

  ==> Integral Setup <==

  Using in-core PK algorithm.
   Calculation information:
      Number of atoms:                   4
      Number of AO shells:              46
      Number of primitives:             82
      Number of atomic orbitals:       160
      Number of basis functions:       138

      Integral cutoff                 1.00e-12
      Number of threads:                12

  Performing in-core PK
  Using 91996872 doubles for integral storage.
  We computed 904893 shell quartets total.
  Whereas there are 584821 unique shell quartets.
    54.73 percent of shell quartets recomputed by reordering.

  ==> DiskJK: Disk-Based J/K Matrices <==

    J tasked:                  Yes
    K tasked:                  Yes
    wK tasked:                  No
    Memory [MiB]:             2861
    Schwarz Cutoff:          1E-12

    OpenMP threads:             12

  Minimum eigenvalue in the overlap matrix is 3.7053157013E-04.
  Using Symmetric Orthogonalization.

  SCF Guess: Superposition of Atomic Densities via on-the-fly atomic UHF.

  ==> Iterations <==

                        Total Energy        Delta E     RMS |[F,P]|

   @UHF iter SAD:  -149.38342244894557   -1.49383e+02   0.00000e+00 
   @UHF iter   1:  -150.76841744773782   -1.38499e+00   6.87436e-03 DIIS
   @UHF iter   2:  -150.83884860920233   -7.04312e-02   4.44800e-03 DIIS
   @UHF iter   3:  -150.87236378160372   -3.35152e-02   5.33592e-04 DIIS
   @UHF iter   4:  -150.87347621387516   -1.11243e-03   1.77446e-04 DIIS
   @UHF iter   5:  -150.87360470005368   -1.28486e-04   7.05237e-05 DIIS
   @UHF iter   6:  -150.87363821533421   -3.35153e-05   2.01663e-05 DIIS
   @UHF iter   7:  -150.87364112993157   -2.91460e-06   4.82608e-06 DIIS
   @UHF iter   8:  -150.87364131207249   -1.82141e-07   1.20490e-06 DIIS
   @UHF iter   9:  -150.87364132288701   -1.08145e-08   2.20644e-07 DIIS
   @UHF iter  10:  -150.87364132320340   -3.16390e-10   6.57793e-08 DIIS
   @UHF iter  11:  -150.87364132323847   -3.50724e-11   3.32392e-08 DIIS
   @UHF iter  12:  -150.87364132325104   -1.25624e-11   1.03751e-08 DIIS
   @UHF iter  13:  -150.87364132325229   -1.25056e-12   3.56605e-09 DIIS
  Energy and wave function converged.


  ==> Post-Iterations <==

   @Spin Contamination Metric:   9.220871481E-03
   @S^2 Expected:                2.000000000E+00
   @S^2 Observed:                2.009220871E+00
   @S   Expected:                1.000000000E+00
   @S   Observed:                1.000000000E+00

    Orbital Energies [Eh]
    ---------------------

    Alpha Occupied:                                                       

       1A1   -20.728897     2A1   -20.562912     3A1    -1.437876  
       4A1    -1.347234     1B2    -0.729287     1B1    -0.728904  
       2B2    -0.708546     5A1    -0.632191     6A1    -0.580177  
       2B1    -0.505395  

    Alpha Virtual:                                                        

       7A1     0.035489     3B2     0.048540     3B1     0.132107  
       8A1     0.134750     9A1     0.148029     4B2     0.158017  
       4B1     0.181089     5B2     0.184944    10A1     0.189274  
      11A1     0.250165     6B2     0.257561     1A2     0.266057  
      12A1     0.273425     5B1     0.319740    13A1     0.367561  
       7B2     0.382360    14A1     0.454231     8B2     0.471870  
       2A2     0.609103     9B2     0.615789    15A1     0.618169  
      16A1     0.619506     6B1     0.640464    17A1     0.717667  
       3A2     0.730999    10B2     0.735722     7B1     0.741945  
      18A1     0.800493    19A1     0.838264     8B1     0.841027  
      11B2     0.854191     9B1     0.915227    20A1     0.925128  
       4A2     0.934042    12B2     0.941867    21A1     0.958546  
      10B1     0.960388    13B2     0.961878    22A1     1.048910  
      14B2     1.054332    11B1     1.122906     5A2     1.185775  
      23A1     1.186394    15B2     1.254736    24A1     1.261982  
      16B2     1.274901    25A1     1.345839     6A2     1.511753  
      12B1     1.592256    26A1     1.630774    27A1     1.828027  
      17B2     1.829596    18B2     1.972616    13B1     1.978638  
      19B2     1.989845    28A1     2.005407     7A2     2.011035  
      14B1     2.026065    29A1     2.036282     8A2     2.039618  
      20B2     2.080980    30A1     2.086036    15B1     2.119462  
      31A1     2.145493    21B2     2.259998    16B1     2.278732  
       9A2     2.329409    32A1     2.336518    33A1     2.402285  
      34A1     2.487997    22B2     2.491767    17B1     2.505092  
      35A1     2.575144    23B2     2.689041    18B1     2.718569  
      36A1     2.820291    10A2     2.889069    24B2     2.901643  
      25B2     3.667746    37A1     3.754272    11A2     4.031315  
      19B1     4.050720    26B2     4.084372    20B1     4.101975  
      38A1     4.148041    27B2     4.278158    21B1     4.284194  
      39A1     4.367098    12A2     4.383403    40A1     4.405615  
      22B1     4.416850    28B2     4.530407    41A1     4.749512  
      29B2     4.853778    13A2     5.151386    30B2     5.164735  
      31B2     5.252971    42A1     5.371212    23B1     5.529375  
      43A1     5.676356    44A1     6.200101    24B1     6.315207  
      32B2     6.316034    14A2     6.369984    45A1     6.375155  
      25B1     6.401983    33B2     6.449809    46A1     6.479680  
      34B2     6.527861    26B1     6.737281    15A2     6.819149  
      47A1     6.820580    27B1     6.927232    48A1     6.930835  
      35B2     6.956676    49A1     7.032992    28B1     7.136461  
      29B1     7.261024    16A2     7.319245    36B2     7.345131  
      50A1     7.357339    17A2     7.358497    51A1     7.548947  
      52A1     7.901165    37B2     7.938529    53A1     8.528912  
      38B2     8.815458    54A1    15.745465  

    Beta Occupied:                                                        

       1A1   -20.650332     2A1   -20.562950     3A1    -1.347406  
       4A1    -1.095575     1B2    -0.708685     5A1    -0.584243  
       6A1    -0.538496     1B1    -0.505386  

    Beta Virtual:                                                         

       2B2     0.035420     7A1     0.036606     2B1     0.049935  
       3B2     0.069582     8A1     0.140913     9A1     0.150610  
       3B1     0.160389     4B2     0.180874    10A1     0.189591  
       5B2     0.221886     4B1     0.225309    11A1     0.259157  
       6B2     0.263150     1A2     0.266369    12A1     0.274867  
       5B1     0.320379    13A1     0.370944     7B2     0.387394  
      14A1     0.455356     8B2     0.472395     9B2     0.618242  
      15A1     0.620552     2A2     0.641333    16A1     0.651288  
       6B1     0.652575    17A1     0.719003     3A2     0.732429  
       7B1     0.743924    10B2     0.747129    18A1     0.808949  
      19A1     0.851392     8B1     0.912197     9B1     0.930433  
      20A1     0.930464     4A2     0.935430    11B2     0.940181  
      12B2     0.944491    21A1     0.959471    13B2     1.009612  
      10B1     1.024900    22A1     1.049490    14B2     1.057040  
      11B1     1.127894     5A2     1.186475    23A1     1.190481  
      15B2     1.268394    16B2     1.277974    24A1     1.280521  
      25A1     1.403712     6A2     1.511858    12B1     1.592356  
      26A1     1.643282    27A1     1.829141    17B2     1.830827  
      18B2     1.979994    13B1     2.016737    19B2     2.021408  
      28A1     2.030675     7A2     2.041379    14B1     2.046252  
      29A1     2.099877    20B2     2.124682    30A1     2.155056  
       8A2     2.182381    15B1     2.188826    31A1     2.195105  
      16B1     2.282931    21B2     2.306084     9A2     2.332329  
      32A1     2.357381    33A1     2.413175    34A1     2.492197  
      22B2     2.496369    17B1     2.509746    35A1     2.578163  
      23B2     2.689203    18B1     2.718657    36A1     2.820596  
      10A2     2.889091    24B2     2.903667    25B2     3.667781  
      37A1     3.754416    11A2     4.031401    19B1     4.101358  
      38A1     4.162819    20B1     4.223501    26B2     4.241105  
      21B1     4.284215    27B2     4.291656    12A2     4.383450  
      39A1     4.391656    40A1     4.413793    22B1     4.417030  
      28B2     4.530604    41A1     4.749654    29B2     4.853866  
      13A2     5.151403    30B2     5.164740    31B2     5.252993  
      42A1     5.371660    23B1     5.529379    43A1     5.676688  
      44A1     6.201767    24B1     6.424056    32B2     6.424740  
      14A2     6.446646    45A1     6.450220    25B1     6.457290  
      33B2     6.494611    46A1     6.528508    34B2     6.539698  
      26B1     6.743660    47A1     6.930852    15A2     7.008176  
      48A1     7.009975    27B1     7.034676    35B2     7.065766  
      49A1     7.113981    28B1     7.136734    29B1     7.260980  
      16A2     7.319287    36B2     7.347173    50A1     7.358006  
      17A2     7.358553    51A1     7.549644    52A1     7.901396  
      37B2     7.938513    53A1     8.614057    38B2     8.815398  
      54A1    15.745460  

    Final Occupation by Irrep:
             A1    A2    B1    B2 
    DOCC [     6,    0,    1,    1 ]
    SOCC [     0,    0,    1,    1 ]

  @UHF Final Energy:  -150.87364132325229

   => Energetics <=

    Nuclear Repulsion Energy =             21.9269248884532324
    One-Electron Energy =                -251.6466420147502845
    Two-Electron Energy =                  78.8460758030447550
    Total Energy =                       -150.8736413232522864

  UHF NO Occupations:
  HONO-2 :    6 A1 1.9970743
  HONO-1 :    2 B2 1.0000000
  HONO-0 :    2 B1 1.0000000
  LUNO+0 :    7 A1 0.0029257
  LUNO+1 :    8 A1 0.0016874
  LUNO+2 :    9 A1 0.0000024
  LUNO+3 :   10 A1 0.0000004


Computation Completed


Properties will be evaluated at   0.000000,   0.000000,   0.000000 [a0]

Properties computed using the SCF density matrix

  Nuclear Dipole Moment: [e a0]
     X:    -0.0000      Y:     0.0000      Z:    -1.9724

  Electronic Dipole Moment: [e a0]
     X:     0.0000      Y:     0.0000      Z:     2.8048

  Dipole Moment: [e a0]
     X:    -0.0000      Y:     0.0000      Z:     0.8324     Total:     0.8324

  Dipole Moment: [D]
     X:    -0.0000      Y:     0.0000      Z:     2.1157     Total:     2.1157


*** tstop() called on c4-16.compute.lan at Wed Mar 10 10:52:46 2021
Module time:
	user time   =      45.68 seconds =       0.76 minutes
	system time =       0.74 seconds =       0.01 minutes
	total time  =          5 seconds =       0.08 minutes
Total time:
	user time   =      45.68 seconds =       0.76 minutes
	system time =       0.74 seconds =       0.01 minutes
	total time  =          5 seconds =       0.08 minutes
 MINTS: Wrapper to libmints.
   by Justin Turney

   Calculation information:
      Number of threads:                12
      Number of atoms:                   4
      Number of AO shells:              46
      Number of SO shells:              37
      Number of primitives:             82
      Number of atomic orbitals:       160
      Number of basis functions:       138

      Number of irreps:                  4
      Integral cutoff                 0.00e+00
      Number of functions per irrep: [  54   17   29   38 ]

 OEINTS: Overlap, kinetic, potential, dipole, and quadrupole integrals
         stored in file 35.

      Computing two-electron integrals...done
      Computed 11527222 non-zero two-electron integrals.
        Stored in file 33.


*** tstart() called on c4-16.compute.lan
*** at Wed Mar 10 10:52:48 2021


	Wfn Parameters:
	--------------------
	Wavefunction         = CCSD_T
	Number of irreps     = 4
	Number of MOs        = 138
	Number of active MOs = 136
	AO-Basis             = NONE
	Semicanonical        = false
	Reference            = UHF
	Print Level          = 1

	IRREP	# MOs	# FZDC	# DOCC	# SOCC	# VIRT	# FZVR
	-----	-----	------	------	------	------	------
	 A1	   54	    2	    4	    0	    48	    0
	 A2	   17	    0	    0	    0	    17	    0
	 B1	   29	    0	    1	    1	    27	    0
	 B2	   38	    0	    1	    1	    36	    0
	Transforming integrals...
	IWL integrals will be deleted.
	(OO|OO)...
	Presorting SO-basis two-electron integrals.
	Sorting File: SO Ints (nn|nn) nbuckets = 1
	Transforming the one-electron integrals and constructing Fock matrices
	Starting AA/AB first half-transformation.
	Sorting AA/AB half-transformed integrals.
	Starting BB first half-transformation.
	Sorting BB half-transformed integrals.
	First half integral transformation complete.
	Starting AA second half-transformation.
	Starting AB second half-transformation.
	Starting BB second half-transformation.
	Two-electron integral transformation complete.
	(OO|OV)...
	Starting AA second half-transformation.
	Starting AB second half-transformation.
	Starting BB second half-transformation.
	Two-electron integral transformation complete.
	(OO|VV)...
	Starting AA second half-transformation.
	Starting AB second half-transformation.
	Starting BB second half-transformation.
	Two-electron integral transformation complete.
	(OV|OO)...
	Starting AA/AB first half-transformation.
	Sorting AA/AB half-transformed integrals.
	Starting BB first half-transformation.
	Sorting BB half-transformed integrals.
	First half integral transformation complete.
	Starting AA second half-transformation.
	Starting AB second half-transformation.
	Starting BB second half-transformation.
	Two-electron integral transformation complete.
	(OV|OV)...
	Starting AA second half-transformation.
	Starting AB second half-transformation.
	Starting BB second half-transformation.
	Two-electron integral transformation complete.
	(OV|VV)...
	Starting AA second half-transformation.
	Starting AB second half-transformation.
	Starting BB second half-transformation.
	Two-electron integral transformation complete.
	(VV|OO)...
	Starting AA/AB first half-transformation.
	Sorting AA/AB half-transformed integrals.
	Starting BB first half-transformation.
	Sorting BB half-transformed integrals.
	First half integral transformation complete.
	Starting AA second half-transformation.
	Starting AB second half-transformation.
	Starting BB second half-transformation.
	Two-electron integral transformation complete.
	(VV|OV)...
	Starting AA second half-transformation.
	Starting AB second half-transformation.
	Starting BB second half-transformation.
	Two-electron integral transformation complete.
	(VV|VV)...
	Starting AA second half-transformation.
	Starting AB second half-transformation.
	Starting BB second half-transformation.
	Two-electron integral transformation complete.
	Frozen core energy     =   -125.45721306381432

	Size of irrep 0 of <AB|CD> integrals:      5.040 (MW) /     40.320 (MB)
	Size of irrep 1 of <AB|CD> integrals:      3.197 (MW) /     25.576 (MB)
	Size of irrep 2 of <AB|CD> integrals:      3.640 (MW) /     29.124 (MB)
	Size of irrep 3 of <AB|CD> integrals:      4.783 (MW) /     38.264 (MB)
	Total:                                    16.660 (MW) /    133.283 (MB)

	Size of irrep 0 of <ab|cd> integrals:      5.327 (MW) /     42.615 (MB)
	Size of irrep 1 of <ab|cd> integrals:      3.430 (MW) /     27.439 (MB)
	Size of irrep 2 of <ab|cd> integrals:      3.893 (MW) /     31.142 (MB)
	Size of irrep 3 of <ab|cd> integrals:      5.072 (MW) /     40.572 (MB)
	Total:                                    17.721 (MW) /    141.768 (MB)

	Size of irrep 0 of <Ab|Cd> integrals:     21.912 (MW) /    175.294 (MB)
	Size of irrep 1 of <Ab|Cd> integrals:     13.242 (MW) /    105.939 (MB)
	Size of irrep 2 of <Ab|Cd> integrals:     15.062 (MW) /    120.497 (MB)
	Size of irrep 3 of <Ab|Cd> integrals:     19.705 (MW) /    157.638 (MB)
	Total:                                    69.921 (MW) /    559.368 (MB)

	Size of irrep 0 of <IA|BC> integrals:      1.469 (MW) /     11.748 (MB)
	Size of irrep 1 of <IA|BC> integrals:      0.694 (MW) /      5.550 (MB)
	Size of irrep 2 of <IA|BC> integrals:      0.908 (MW) /      7.266 (MB)
	Size of irrep 3 of <IA|BC> integrals:      1.198 (MW) /      9.588 (MB)
	Total:                                     4.269 (MW) /     34.152 (MB)

	Size of irrep 0 of <ia|bc> integrals:      1.220 (MW) /      9.758 (MB)
	Size of irrep 1 of <ia|bc> integrals:      0.493 (MW) /      3.941 (MB)
	Size of irrep 2 of <ia|bc> integrals:      0.698 (MW) /      5.588 (MB)
	Size of irrep 3 of <ia|bc> integrals:      0.959 (MW) /      7.675 (MB)
	Total:                                     3.370 (MW) /     26.961 (MB)

	Size of irrep 0 of <Ia|Bc> integrals:      1.507 (MW) /     12.058 (MB)
	Size of irrep 1 of <Ia|Bc> integrals:      0.721 (MW) /      5.764 (MB)
	Size of irrep 2 of <Ia|Bc> integrals:      0.939 (MW) /      7.514 (MB)
	Size of irrep 3 of <Ia|Bc> integrals:      1.234 (MW) /      9.872 (MB)
	Total:                                     4.401 (MW) /     35.208 (MB)

	Size of irrep 0 of <iA|bC> integrals:      1.194 (MW) /      9.549 (MB)
	Size of irrep 1 of <iA|bC> integrals:      0.477 (MW) /      3.814 (MB)
	Size of irrep 2 of <iA|bC> integrals:      0.671 (MW) /      5.371 (MB)
	Size of irrep 3 of <iA|bC> integrals:      0.928 (MW) /      7.422 (MB)
	Total:                                     3.270 (MW) /     26.156 (MB)

	Size of irrep 0 of tIjAb amplitudes:       0.094 (MW) /      0.749 (MB)
	Size of irrep 1 of tIjAb amplitudes:       0.015 (MW) /      0.116 (MB)
	Size of irrep 2 of tIjAb amplitudes:       0.047 (MW) /      0.373 (MB)
	Size of irrep 3 of tIjAb amplitudes:       0.053 (MW) /      0.426 (MB)
	Total:                                     0.208 (MW) /      1.664 (MB)

	Nuclear Rep. energy          =     21.92692488845323
	SCF energy                   =   -150.87364132325229
	One-electron energy          =    -83.23730629415104
	Two-electron (AA) energy     =      9.94458669026772
	Two-electron (BB) energy     =      5.29234327697602
	Two-electron (AB) energy     =     20.65702317901403
	Two-electron energy          =     35.89395314625777
	Reference energy             =   -150.87364132325436

*** tstop() called on c4-16.compute.lan at Wed Mar 10 10:53:09 2021
Module time:
	user time   =      56.02 seconds =       0.93 minutes
	system time =      10.57 seconds =       0.18 minutes
	total time  =         21 seconds =       0.35 minutes
Total time:
	user time   =     107.65 seconds =       1.79 minutes
	system time =      11.68 seconds =       0.19 minutes
	total time  =         28 seconds =       0.47 minutes
            **************************
            *                        *
            *        CCENERGY        *
            *                        *
            **************************

    Nuclear Rep. energy (wfn)     =   21.926924888453232
    SCF energy          (wfn)     = -150.873641323252286
    Reference energy    (file100) = -150.873641323254361

    Input parameters:
    -----------------
    Wave function   =     CCSD_T
    Reference wfn   =     UHF
    Brueckner       =     No
    Memory (Mbytes) =     4000.0
    Maxiter         =     50
    R_Convergence   =     1.0e-10
    E_Convergence   =     1.0e-10
    Restart         =     Yes
    DIIS            =     Yes
    AO Basis        =     NONE
    ABCD            =     NEW
    Cache Level     =     2
    Cache Type      =     LRU
    Print Level     =     1
    Num. of threads =     12
    # Amps to Print =     10
    Print MP2 Amps? =     No
    Analyze T2 Amps =     No
    Print Pair Ener =     No
    Local CC        =     No
    SCS-MP2         =     False
    SCSN-MP2        =     False
    SCS-CCSD        =     False

MP2 correlation energy -0.4156763001320134
                Solving CC Amplitude Equations
                ------------------------------
  Iter             Energy              RMS        T1Diag      D1Diag    New D1Diag    D2Diag
  ----     ---------------------    ---------   ----------  ----------  ----------   --------
     0        -0.415676300132013    0.000e+00    0.000000    0.000000    0.000000    0.000000
     1        -0.426544410411431    5.635e-02    0.010355    0.000000    0.000000    0.000000
     2        -0.434628908586720    1.678e-02    0.010857    0.000000    0.000000    0.000000
     3        -0.436725601507713    8.402e-03    0.012671    0.000000    0.000000    0.000000
     4        -0.436601704629942    2.491e-03    0.013015    0.000000    0.000000    0.000000
     5        -0.436589716278166    1.258e-03    0.013157    0.000000    0.000000    0.000000
     6        -0.436615173443472    4.981e-04    0.013171    0.000000    0.000000    0.000000
     7        -0.436619290293035    2.242e-04    0.013160    0.000000    0.000000    0.000000
     8        -0.436620038531767    6.815e-05    0.013154    0.000000    0.000000    0.000000
     9        -0.436621251901147    2.778e-05    0.013154    0.000000    0.000000    0.000000
    10        -0.436620082635894    1.050e-05    0.013154    0.000000    0.000000    0.000000
    11        -0.436620192682108    5.162e-06    0.013154    0.000000    0.000000    0.000000
    12        -0.436620153633982    2.508e-06    0.013154    0.000000    0.000000    0.000000
    13        -0.436620146814495    1.345e-06    0.013154    0.000000    0.000000    0.000000
    14        -0.436620173358982    6.338e-07    0.013154    0.000000    0.000000    0.000000
    15        -0.436620171965659    1.720e-07    0.013154    0.000000    0.000000    0.000000
    16        -0.436620171828752    1.050e-07    0.013154    0.000000    0.000000    0.000000
    17        -0.436620172619793    2.973e-08    0.013154    0.000000    0.000000    0.000000
    18        -0.436620172198660    1.372e-08    0.013154    0.000000    0.000000    0.000000
    19        -0.436620171961082    4.289e-09    0.013154    0.000000    0.000000    0.000000
    20        -0.436620171936749    1.830e-09    0.013154    0.000000    0.000000    0.000000
    21        -0.436620171922789    7.525e-10    0.013154    0.000000    0.000000    0.000000
    22        -0.436620171921550    3.068e-10    0.013154    0.000000    0.000000    0.000000
    23        -0.436620171924452    1.383e-10    0.013154    0.000000    0.000000    0.000000
    24        -0.436620171923769    7.231e-11    0.013154    0.000000    0.000000    0.000000

    Iterations converged.


    Largest TIA Amplitudes:
              5  67        -0.0136702131
              5  65        -0.0121317945
              2   2         0.0098493143
              5  66        -0.0087776376
              6  93        -0.0087366518
              4  65        -0.0083238389
              3   6        -0.0076691985
              3   1         0.0060483400
              2   6        -0.0057507102
              2   4        -0.0054194923

    Largest Tia Amplitudes:
              4  68        -0.0137387909
              4  66        -0.0133353963
              2   6        -0.0088457178
              4  65        -0.0078077999
              2   2         0.0065358220
              3   2        -0.0058029457
              2   1         0.0053661010
              5 109         0.0050873459
              1  11        -0.0050551338
              4  82         0.0042904598

    Largest TIJAB Amplitudes:
      6   4 100  70         0.0170992195
      4   2  70  12         0.0125263432
      6   2 100  12        -0.0124692674
      6   4  55  22        -0.0115159128
      7   5  50  10        -0.0089261793
      6   4 115  81         0.0086556811
      4   0  70  18         0.0086119443
      6   4 100  81        -0.0085938490
      7   3  97   6        -0.0085707795
      6   0 100  18        -0.0085704372

    Largest Tijab Amplitudes:
      5   4  50  10        -0.0087361596
      5   2  99   6        -0.0082634883
      3   1  78  65        -0.0078993983
      4   2  70  10         0.0075618985
      3   1  69  65        -0.0075085284
      5   2 100   8        -0.0074803254
      5   4  53  10        -0.0074707825
      5   4  99  68        -0.0074658079
      5   4  99  71        -0.0074394922
      5   4  99  74        -0.0071072779

    Largest TIjAb Amplitudes:
      7   5  97  99        -0.0195983022
      2   3  12  12         0.0174556089
      4   3  70  12        -0.0169767975
      6   3 100  12         0.0168241404
      6   1  55  65         0.0166555931
      4   1  22  65         0.0166344496
      2   1  77  65         0.0165171978
      4   1  70  18        -0.0158381767
      6   1 100  18         0.0157279833
      6   1  22  94         0.0151515396

    SCF energy       (wfn)                    = -150.873641323252286
    Reference energy (file100)                = -150.873641323254361

    Opposite-spin MP2 correlation energy      =   -0.314108263377388
    Same-spin MP2 correlation energy          =   -0.101568036754626
    MP2 correlation energy                    =   -0.415676300132013
      * MP2 total energy                      = -151.289317623386381

    Opposite-spin CCSD correlation energy     =   -0.341780048526477
    Same-spin CCSD correlation energy         =   -0.094840123397291
    CCSD correlation energy                   =   -0.436620171923769
      * CCSD total energy                     = -151.310261495178139

            **************************
            *                        *
            *        CCTRIPLES       *
            *                        *
            **************************


    Wave function   =    CCSD_T
    Reference wfn   =      UHF

    Nuclear Rep. energy (wfn)                =   21.926924888453232
    SCF energy          (wfn)                = -150.873641323252286
    Reference energy    (file100)            = -150.873641323254361
    CCSD energy         (file100)            =   -0.436620171923769
    Total CCSD energy   (file100)            = -151.310261495178139

    Number of ijk index combinations:
    Spin Case AAA:                                  56
    Spin Case BBB:                                  20
    Spin Case AAB:                                 168
    Spin Case ABB:                                 120
    AAA (T) energy                             =   -0.000392541837888
    BBB (T) energy                             =   -0.000197992424854
    AAB (T) energy                             =   -0.006675451594860
    ABB (T) energy                             =   -0.004946501299864
    (T) energy                                   =   -0.012212487157465
      * CCSD(T) total energy                     = -151.322473982335595

Stephenergy -151.3224739823356
    Psi4 stopped on: Wednesday, 10 March 2021 10:54AM
    Psi4 wall time for execution: 0:01:35.46

*** Psi4 exiting successfully. Buy a developer a beer!
