
    -----------------------------------------------------------------------
          Psi4: An Open-Source Ab Initio Electronic Structure Package
                               Psi4 1.3.2 release

                         Git: Rev {HEAD} ecbda83 


    R. M. Parrish, L. A. Burns, D. G. A. Smith, A. C. Simmonett,
    A. E. DePrince III, E. G. Hohenstein, U. Bozkaya, A. Yu. Sokolov,
    R. Di Remigio, R. M. Richard, J. F. Gonthier, A. M. James,
    H. R. McAlexander, A. Kumar, M. Saitow, X. Wang, B. P. Pritchard,
    P. Verma, H. F. Schaefer III, K. Patkowski, R. A. King, E. F. Valeev,
    F. A. Evangelista, J. M. Turney, T. D. Crawford, and C. D. Sherrill,
    J. Chem. Theory Comput. 13(7) pp 3185--3197 (2017).
    (doi: 10.1021/acs.jctc.7b00174)


                         Additional Contributions by
    P. Kraus, H. Kruse, M. H. Lechner, M. C. Schieber, R. A. Shaw,
    A. Alenaizan, R. Galvelis, Z. L. Glick, S. Lehtola, and J. P. Misiewicz

    -----------------------------------------------------------------------


    Psi4 started on: Wednesday, 10 March 2021 10:52AM

    Process ID: 151828
    Host:       c5-1.compute.lan
    PSIDATADIR: /apps/gb/PSI4/1.3.2/share/psi4
    Memory:     500.0 MiB
    Threads:    12
    
  ==> Input File <==

--------------------------------------------------------------------------
memory 4 GB

molecule  {
0 3
O    0.000000000000    0.000000000000   -1.647450055281
H    0.000000000000   -0.752418562268   -1.049260865463
H   -0.000000000000    0.752418562268   -1.049260865463
O    0.000000000000    0.000000000000    1.779676002178
}
set {
basis aug-cc-pvtz
reference uhf
e_convergence 10
scf_type pk
freeze_core true
}

set ccenergy {
e_convergence 10
r_convergence 10
}

e = energy('ccsd(t)')

print_out('Stephenergy {}'.format(e))

--------------------------------------------------------------------------

  Memory set to   3.725 GiB by Python driver.

*** tstart() called on c5-1.compute.lan
*** at Wed Mar 10 10:52:41 2021

   => Loading Basis Set <=

    Name: AUG-CC-PVTZ
    Role: ORBITAL
    Keyword: BASIS
    atoms 1, 4 entry O          line   327 file /apps/gb/PSI4/1.3.2/share/psi4/basis/aug-cc-pvtz.gbs 
    atoms 2-3  entry H          line    36 file /apps/gb/PSI4/1.3.2/share/psi4/basis/aug-cc-pvtz.gbs 


         ---------------------------------------------------------
                                   SCF
               by Justin Turney, Rob Parrish, Andy Simmonett
                          and Daniel G. A. Smith
                              UHF Reference
                       12 Threads,   3814 MiB Core
         ---------------------------------------------------------

  ==> Geometry <==

    Molecular point group: c2v
    Full point group: C2v

    Geometry (in Angstrom), charge = 0, multiplicity = 3:

       Center              X                  Y                   Z               Mass       
    ------------   -----------------  -----------------  -----------------  -----------------
         O           -0.000000000000     0.000000000000    -1.647450055281    15.994914619570
         H            0.000000000000    -0.752418562268    -1.049260865463     1.007825032230
         H           -0.000000000000     0.752418562268    -1.049260865463     1.007825032230
         O           -0.000000000000     0.000000000000     1.779676002178    15.994914619570

  Running in c2v symmetry.

  Rotational constants: A =     14.77278  B =      0.17507  C =      0.17302 [cm^-1]
  Rotational constants: A = 442876.93244  B =   5248.47538  C =   5187.00488 [MHz]
  Nuclear repulsion =   21.934503343622758

  Charge       = 0
  Multiplicity = 3
  Electrons    = 18
  Nalpha       = 10
  Nbeta        = 8

  ==> Algorithm <==

  SCF Algorithm Type is PK.
  DIIS enabled.
  MOM disabled.
  Fractional occupation disabled.
  Guess Type is SAD.
  Energy threshold   = 1.00e-10
  Density threshold  = 1.00e-08
  Integral threshold = 0.00e+00

  ==> Primary Basis <==

  Basis Set: AUG-CC-PVTZ
    Blend: AUG-CC-PVTZ
    Number of shells: 46
    Number of basis function: 138
    Number of Cartesian functions: 160
    Spherical Harmonics?: true
    Max angular momentum: 3

  ==> Pre-Iterations <==

   -------------------------------------------------------
    Irrep   Nso     Nmo     Nalpha   Nbeta   Ndocc  Nsocc
   -------------------------------------------------------
     A1        54      54       0       0       0       0
     A2        17      17       0       0       0       0
     B1        29      29       0       0       0       0
     B2        38      38       0       0       0       0
   -------------------------------------------------------
    Total     138     138      10       8       8       2
   -------------------------------------------------------

  ==> Integral Setup <==

  Using in-core PK algorithm.
   Calculation information:
      Number of atoms:                   4
      Number of AO shells:              46
      Number of primitives:             82
      Number of atomic orbitals:       160
      Number of basis functions:       138

      Integral cutoff                 1.00e-12
      Number of threads:                12

  Performing in-core PK
  Using 91996872 doubles for integral storage.
  We computed 905075 shell quartets total.
  Whereas there are 584821 unique shell quartets.
    54.76 percent of shell quartets recomputed by reordering.

  ==> DiskJK: Disk-Based J/K Matrices <==

    J tasked:                  Yes
    K tasked:                  Yes
    wK tasked:                  No
    Memory [MiB]:             2861
    Schwarz Cutoff:          1E-12

    OpenMP threads:             12

  Minimum eigenvalue in the overlap matrix is 3.7114350290E-04.
  Using Symmetric Orthogonalization.

  SCF Guess: Superposition of Atomic Densities via on-the-fly atomic UHF.

  ==> Iterations <==

                        Total Energy        Delta E     RMS |[F,P]|

   @UHF iter SAD:  -149.38374874239005   -1.49384e+02   0.00000e+00 
   @UHF iter   1:  -150.76828799268804   -1.38454e+00   6.87505e-03 DIIS
   @UHF iter   2:  -150.83875092054680   -7.04629e-02   4.45076e-03 DIIS
   @UHF iter   3:  -150.87231451633392   -3.35636e-02   5.33775e-04 DIIS
   @UHF iter   4:  -150.87342704059805   -1.11252e-03   1.77535e-04 DIIS
   @UHF iter   5:  -150.87355563317388   -1.28593e-04   7.05454e-05 DIIS
   @UHF iter   6:  -150.87358916783521   -3.35347e-05   2.01753e-05 DIIS
   @UHF iter   7:  -150.87359208489076   -2.91706e-06   4.83040e-06 DIIS
   @UHF iter   8:  -150.87359226732980   -1.82439e-07   1.20702e-06 DIIS
   @UHF iter   9:  -150.87359227818962   -1.08598e-08   2.21183e-07 DIIS
   @UHF iter  10:  -150.87359227850746   -3.17840e-10   6.61786e-08 DIIS
   @UHF iter  11:  -150.87359227854321   -3.57545e-11   3.34924e-08 DIIS
   @UHF iter  12:  -150.87359227855603   -1.28182e-11   1.03948e-08 DIIS
   @UHF iter  13:  -150.87359227855720   -1.16529e-12   3.57015e-09 DIIS
  Energy and wave function converged.


  ==> Post-Iterations <==

   @Spin Contamination Metric:   9.222323876E-03
   @S^2 Expected:                2.000000000E+00
   @S^2 Observed:                2.009222324E+00
   @S   Expected:                1.000000000E+00
   @S   Observed:                1.000000000E+00

    Orbital Energies [Eh]
    ---------------------

    Alpha Occupied:                                                       

       1A1   -20.729051     2A1   -20.563080     3A1    -1.438030  
       4A1    -1.347409     1B2    -0.729433     1B1    -0.729054  
       2B2    -0.707696     5A1    -0.632380     6A1    -0.580848  
       2B1    -0.505472  

    Alpha Virtual:                                                        

       7A1     0.035496     3B2     0.048568     3B1     0.132062  
       8A1     0.134711     9A1     0.148024     4B2     0.157986  
       4B1     0.181139     5B2     0.185051    10A1     0.189305  
      11A1     0.250270     6B2     0.257483     1A2     0.266196  
      12A1     0.273523     5B1     0.319513    13A1     0.367460  
       7B2     0.382434    14A1     0.454476     8B2     0.471932  
       2A2     0.609058     9B2     0.615649    15A1     0.618663  
      16A1     0.619608     6B1     0.640667    17A1     0.717823  
       3A2     0.731317    10B2     0.736085     7B1     0.741841  
      18A1     0.800278    19A1     0.838194     8B1     0.840715  
      11B2     0.854122     9B1     0.915286    20A1     0.925026  
       4A2     0.934239    12B2     0.941998    21A1     0.958265  
      10B1     0.960783    13B2     0.961977    22A1     1.049352  
      14B2     1.054265    11B1     1.123035     5A2     1.186190  
      23A1     1.187401    15B2     1.255450    24A1     1.262115  
      16B2     1.275150    25A1     1.345692     6A2     1.511591  
      12B1     1.591092    26A1     1.630175    27A1     1.828827  
      17B2     1.832456    18B2     1.971981    13B1     1.978520  
      19B2     1.989475    28A1     2.005251     7A2     2.011032  
      14B1     2.026067    29A1     2.036185     8A2     2.039763  
      20B2     2.081373    30A1     2.086956    15B1     2.119742  
      31A1     2.145934    21B2     2.260865    16B1     2.278874  
       9A2     2.329341    32A1     2.337228    33A1     2.402216  
      34A1     2.488697    22B2     2.492238    17B1     2.506360  
      35A1     2.575879    23B2     2.688334    18B1     2.718634  
      36A1     2.822086    10A2     2.889116    24B2     2.899152  
      25B2     3.668502    37A1     3.751914    11A2     4.033159  
      19B1     4.050635    26B2     4.084697    20B1     4.101728  
      38A1     4.146109    21B1     4.279324    27B2     4.279941  
      39A1     4.363983    12A2     4.383331    40A1     4.404439  
      22B1     4.417150    28B2     4.532712    41A1     4.751198  
      29B2     4.855602    13A2     5.149972    30B2     5.169753  
      31B2     5.248654    42A1     5.370817    23B1     5.530624  
      43A1     5.671453    44A1     6.203433    24B1     6.315069  
      32B2     6.315907    14A2     6.369983    45A1     6.375156  
      25B1     6.401962    33B2     6.450093    46A1     6.480467  
      34B2     6.526337    26B1     6.737507    15A2     6.819055  
      47A1     6.820503    27B1     6.927483    48A1     6.934816  
      35B2     6.956695    49A1     7.033350    28B1     7.135841  
      29B1     7.261312    16A2     7.319918    36B2     7.339271  
      17A2     7.357661    50A1     7.360621    51A1     7.547351  
      52A1     7.895922    37B2     7.941071    53A1     8.530771  
      38B2     8.817636    54A1    15.739729  

    Beta Occupied:                                                        

       1A1   -20.650484     2A1   -20.563118     3A1    -1.347582  
       4A1    -1.095727     1B2    -0.707830     5A1    -0.584936  
       6A1    -0.538662     1B1    -0.505463  

    Beta Virtual:                                                         

       2B2     0.035366     7A1     0.036619     2B1     0.049822  
       3B2     0.069567     8A1     0.140874     9A1     0.150609  
       3B1     0.160426     4B2     0.180923    10A1     0.189621  
       5B2     0.221877     4B1     0.225250    11A1     0.259302  
       6B2     0.263061     1A2     0.266511    12A1     0.274924  
       5B1     0.320157    13A1     0.370848     7B2     0.387499  
      14A1     0.455611     8B2     0.472467     9B2     0.618097  
      15A1     0.621175     2A2     0.641292    16A1     0.651253  
       6B1     0.652793    17A1     0.719151     3A2     0.732739  
       7B1     0.743807    10B2     0.747507    18A1     0.808826  
      19A1     0.851234     8B1     0.911842    20A1     0.930348  
       9B1     0.930783     4A2     0.935630    11B2     0.940082  
      12B2     0.944787    21A1     0.959204    13B2     1.009377  
      10B1     1.024978    22A1     1.049948    14B2     1.057128  
      11B1     1.128102     5A2     1.186900    23A1     1.191482  
      15B2     1.268763    16B2     1.278590    24A1     1.280936  
      25A1     1.403002     6A2     1.511697    12B1     1.591195  
      26A1     1.642966    27A1     1.829959    17B2     1.833738  
      18B2     1.979015    13B1     2.016615    19B2     2.021336  
      28A1     2.030498     7A2     2.041544    14B1     2.046314  
      29A1     2.100929    20B2     2.125253    30A1     2.155058  
       8A2     2.182339    15B1     2.189070    31A1     2.195348  
      16B1     2.283022    21B2     2.306762     9A2     2.332270  
      32A1     2.358255    33A1     2.413017    34A1     2.492789  
      22B2     2.496842    17B1     2.511036    35A1     2.578910  
      23B2     2.688493    18B1     2.718726    36A1     2.822399  
      10A2     2.889139    24B2     2.901196    25B2     3.668545  
      37A1     3.752070    11A2     4.033245    19B1     4.101057  
      38A1     4.160348    20B1     4.223475    26B2     4.242051  
      21B1     4.279345    27B2     4.292800    12A2     4.383378  
      39A1     4.386985    40A1     4.414700    22B1     4.417325  
      28B2     4.532904    41A1     4.751346    29B2     4.855694  
      13A2     5.149989    30B2     5.169758    31B2     5.248676  
      42A1     5.371273    23B1     5.530628    43A1     5.671789  
      44A1     6.205162    24B1     6.423919    32B2     6.424606  
      14A2     6.446644    45A1     6.450190    25B1     6.457243  
      33B2     6.494169    46A1     6.529251    34B2     6.538888  
      26B1     6.743969    47A1     6.934953    15A2     7.008082  
      48A1     7.009909    27B1     7.034885    35B2     7.065716  
      49A1     7.114246    28B1     7.136093    29B1     7.261268  
      16A2     7.319958    36B2     7.341388    17A2     7.357721  
      50A1     7.361280    51A1     7.548029    52A1     7.896164  
      37B2     7.941055    53A1     8.615870    38B2     8.817575  
      54A1    15.739723  

    Final Occupation by Irrep:
             A1    A2    B1    B2 
    DOCC [     6,    0,    1,    1 ]
    SOCC [     0,    0,    1,    1 ]

  @UHF Final Energy:  -150.87359227855720

   => Energetics <=

    Nuclear Repulsion Energy =             21.9345033436227581
    One-Electron Energy =                -251.6599360241291379
    Two-Electron Energy =                  78.8518404019491754
    Total Energy =                       -150.8735922785571972

  UHF NO Occupations:
  HONO-2 :    6 A1 1.9970740
  HONO-1 :    2 B2 1.0000000
  HONO-0 :    2 B1 1.0000000
  LUNO+0 :    7 A1 0.0029260
  LUNO+1 :    8 A1 0.0016878
  LUNO+2 :    9 A1 0.0000024
  LUNO+3 :   10 A1 0.0000004


Computation Completed


Properties will be evaluated at   0.000000,   0.000000,   0.000000 [a0]

Properties computed using the SCF density matrix

  Nuclear Dipole Moment: [e a0]
     X:    -0.0000      Y:     0.0000      Z:    -1.9667

  Electronic Dipole Moment: [e a0]
     X:     0.0000      Y:     0.0000      Z:     2.8019

  Dipole Moment: [e a0]
     X:    -0.0000      Y:     0.0000      Z:     0.8353     Total:     0.8353

  Dipole Moment: [D]
     X:    -0.0000      Y:     0.0000      Z:     2.1231     Total:     2.1231


*** tstop() called on c5-1.compute.lan at Wed Mar 10 10:52:46 2021
Module time:
	user time   =      43.85 seconds =       0.73 minutes
	system time =       0.68 seconds =       0.01 minutes
	total time  =          5 seconds =       0.08 minutes
Total time:
	user time   =      43.85 seconds =       0.73 minutes
	system time =       0.68 seconds =       0.01 minutes
	total time  =          5 seconds =       0.08 minutes
 MINTS: Wrapper to libmints.
   by Justin Turney

   Calculation information:
      Number of threads:                12
      Number of atoms:                   4
      Number of AO shells:              46
      Number of SO shells:              37
      Number of primitives:             82
      Number of atomic orbitals:       160
      Number of basis functions:       138

      Number of irreps:                  4
      Integral cutoff                 0.00e+00
      Number of functions per irrep: [  54   17   29   38 ]

 OEINTS: Overlap, kinetic, potential, dipole, and quadrupole integrals
         stored in file 35.

      Computing two-electron integrals...done
      Computed 11530634 non-zero two-electron integrals.
        Stored in file 33.


*** tstart() called on c5-1.compute.lan
*** at Wed Mar 10 10:52:48 2021


	Wfn Parameters:
	--------------------
	Wavefunction         = CCSD_T
	Number of irreps     = 4
	Number of MOs        = 138
	Number of active MOs = 136
	AO-Basis             = NONE
	Semicanonical        = false
	Reference            = UHF
	Print Level          = 1

	IRREP	# MOs	# FZDC	# DOCC	# SOCC	# VIRT	# FZVR
	-----	-----	------	------	------	------	------
	 A1	   54	    2	    4	    0	    48	    0
	 A2	   17	    0	    0	    0	    17	    0
	 B1	   29	    0	    1	    1	    27	    0
	 B2	   38	    0	    1	    1	    36	    0
	Transforming integrals...
	IWL integrals will be deleted.
	(OO|OO)...
	Presorting SO-basis two-electron integrals.
	Sorting File: SO Ints (nn|nn) nbuckets = 1
	Transforming the one-electron integrals and constructing Fock matrices
	Starting AA/AB first half-transformation.
	Sorting AA/AB half-transformed integrals.
	Starting BB first half-transformation.
	Sorting BB half-transformed integrals.
	First half integral transformation complete.
	Starting AA second half-transformation.
	Starting AB second half-transformation.
	Starting BB second half-transformation.
	Two-electron integral transformation complete.
	(OO|OV)...
	Starting AA second half-transformation.
	Starting AB second half-transformation.
	Starting BB second half-transformation.
	Two-electron integral transformation complete.
	(OO|VV)...
	Starting AA second half-transformation.
	Starting AB second half-transformation.
	Starting BB second half-transformation.
	Two-electron integral transformation complete.
	(OV|OO)...
	Starting AA/AB first half-transformation.
	Sorting AA/AB half-transformed integrals.
	Starting BB first half-transformation.
	Sorting BB half-transformed integrals.
	First half integral transformation complete.
	Starting AA second half-transformation.
	Starting AB second half-transformation.
	Starting BB second half-transformation.
	Two-electron integral transformation complete.
	(OV|OV)...
	Starting AA second half-transformation.
	Starting AB second half-transformation.
	Starting BB second half-transformation.
	Two-electron integral transformation complete.
	(OV|VV)...
	Starting AA second half-transformation.
	Starting AB second half-transformation.
	Starting BB second half-transformation.
	Two-electron integral transformation complete.
	(VV|OO)...
	Starting AA/AB first half-transformation.
	Sorting AA/AB half-transformed integrals.
	Starting BB first half-transformation.
	Sorting BB half-transformed integrals.
	First half integral transformation complete.
	Starting AA second half-transformation.
	Starting AB second half-transformation.
	Starting BB second half-transformation.
	Two-electron integral transformation complete.
	(VV|OV)...
	Starting AA second half-transformation.
	Starting AB second half-transformation.
	Starting BB second half-transformation.
	Two-electron integral transformation complete.
	(VV|VV)...
	Starting AA second half-transformation.
	Starting AB second half-transformation.
	Starting BB second half-transformation.
	Two-electron integral transformation complete.
	Frozen core energy     =   -125.45962372018676

	Size of irrep 0 of <AB|CD> integrals:      5.040 (MW) /     40.320 (MB)
	Size of irrep 1 of <AB|CD> integrals:      3.197 (MW) /     25.576 (MB)
	Size of irrep 2 of <AB|CD> integrals:      3.640 (MW) /     29.124 (MB)
	Size of irrep 3 of <AB|CD> integrals:      4.783 (MW) /     38.264 (MB)
	Total:                                    16.660 (MW) /    133.283 (MB)

	Size of irrep 0 of <ab|cd> integrals:      5.327 (MW) /     42.615 (MB)
	Size of irrep 1 of <ab|cd> integrals:      3.430 (MW) /     27.439 (MB)
	Size of irrep 2 of <ab|cd> integrals:      3.893 (MW) /     31.142 (MB)
	Size of irrep 3 of <ab|cd> integrals:      5.072 (MW) /     40.572 (MB)
	Total:                                    17.721 (MW) /    141.768 (MB)

	Size of irrep 0 of <Ab|Cd> integrals:     21.912 (MW) /    175.294 (MB)
	Size of irrep 1 of <Ab|Cd> integrals:     13.242 (MW) /    105.939 (MB)
	Size of irrep 2 of <Ab|Cd> integrals:     15.062 (MW) /    120.497 (MB)
	Size of irrep 3 of <Ab|Cd> integrals:     19.705 (MW) /    157.638 (MB)
	Total:                                    69.921 (MW) /    559.368 (MB)

	Size of irrep 0 of <IA|BC> integrals:      1.469 (MW) /     11.748 (MB)
	Size of irrep 1 of <IA|BC> integrals:      0.694 (MW) /      5.550 (MB)
	Size of irrep 2 of <IA|BC> integrals:      0.908 (MW) /      7.266 (MB)
	Size of irrep 3 of <IA|BC> integrals:      1.198 (MW) /      9.588 (MB)
	Total:                                     4.269 (MW) /     34.152 (MB)

	Size of irrep 0 of <ia|bc> integrals:      1.220 (MW) /      9.758 (MB)
	Size of irrep 1 of <ia|bc> integrals:      0.493 (MW) /      3.941 (MB)
	Size of irrep 2 of <ia|bc> integrals:      0.698 (MW) /      5.588 (MB)
	Size of irrep 3 of <ia|bc> integrals:      0.959 (MW) /      7.675 (MB)
	Total:                                     3.370 (MW) /     26.961 (MB)

	Size of irrep 0 of <Ia|Bc> integrals:      1.507 (MW) /     12.058 (MB)
	Size of irrep 1 of <Ia|Bc> integrals:      0.721 (MW) /      5.764 (MB)
	Size of irrep 2 of <Ia|Bc> integrals:      0.939 (MW) /      7.514 (MB)
	Size of irrep 3 of <Ia|Bc> integrals:      1.234 (MW) /      9.872 (MB)
	Total:                                     4.401 (MW) /     35.208 (MB)

	Size of irrep 0 of <iA|bC> integrals:      1.194 (MW) /      9.549 (MB)
	Size of irrep 1 of <iA|bC> integrals:      0.477 (MW) /      3.814 (MB)
	Size of irrep 2 of <iA|bC> integrals:      0.671 (MW) /      5.371 (MB)
	Size of irrep 3 of <iA|bC> integrals:      0.928 (MW) /      7.422 (MB)
	Total:                                     3.270 (MW) /     26.156 (MB)

	Size of irrep 0 of tIjAb amplitudes:       0.094 (MW) /      0.749 (MB)
	Size of irrep 1 of tIjAb amplitudes:       0.015 (MW) /      0.116 (MB)
	Size of irrep 2 of tIjAb amplitudes:       0.047 (MW) /      0.373 (MB)
	Size of irrep 3 of tIjAb amplitudes:       0.053 (MW) /      0.426 (MB)
	Total:                                     0.208 (MW) /      1.664 (MB)

	Nuclear Rep. energy          =     21.93450334362276
	SCF energy                   =   -150.87359227855720
	One-electron energy          =    -83.24642059637638
	Two-electron (AA) energy     =      9.94599679862064
	Two-electron (BB) energy     =      5.29302077204362
	Two-electron (AB) energy     =     20.65893112371710
	Two-electron energy          =     35.89794869438137
	Reference energy             =   -150.87359227855902

*** tstop() called on c5-1.compute.lan at Wed Mar 10 10:53:07 2021
Module time:
	user time   =      49.26 seconds =       0.82 minutes
	system time =       9.54 seconds =       0.16 minutes
	total time  =         19 seconds =       0.32 minutes
Total time:
	user time   =      98.81 seconds =       1.65 minutes
	system time =      10.59 seconds =       0.18 minutes
	total time  =         26 seconds =       0.43 minutes
            **************************
            *                        *
            *        CCENERGY        *
            *                        *
            **************************

    Nuclear Rep. energy (wfn)     =   21.934503343622758
    SCF energy          (wfn)     = -150.873592278557197
    Reference energy    (file100) = -150.873592278559016

    Input parameters:
    -----------------
    Wave function   =     CCSD_T
    Reference wfn   =     UHF
    Brueckner       =     No
    Memory (Mbytes) =     4000.0
    Maxiter         =     50
    R_Convergence   =     1.0e-10
    E_Convergence   =     1.0e-10
    Restart         =     Yes
    DIIS            =     Yes
    AO Basis        =     NONE
    ABCD            =     NEW
    Cache Level     =     2
    Cache Type      =     LRU
    Print Level     =     1
    Num. of threads =     12
    # Amps to Print =     10
    Print MP2 Amps? =     No
    Analyze T2 Amps =     No
    Print Pair Ener =     No
    Local CC        =     No
    SCS-MP2         =     False
    SCSN-MP2        =     False
    SCS-CCSD        =     False

MP2 correlation energy -0.4157241860013713
                Solving CC Amplitude Equations
                ------------------------------
  Iter             Energy              RMS        T1Diag      D1Diag    New D1Diag    D2Diag
  ----     ---------------------    ---------   ----------  ----------  ----------   --------
     0        -0.415724186001371    0.000e+00    0.000000    0.000000    0.000000    0.000000
     1        -0.426580489430791    5.638e-02    0.010361    0.000000    0.000000    0.000000
     2        -0.434669653960604    1.679e-02    0.010863    0.000000    0.000000    0.000000
     3        -0.436767579541355    8.406e-03    0.012679    0.000000    0.000000    0.000000
     4        -0.436643614271394    2.492e-03    0.013022    0.000000    0.000000    0.000000
     5        -0.436631593897230    1.259e-03    0.013165    0.000000    0.000000    0.000000
     6        -0.436657043229994    4.984e-04    0.013178    0.000000    0.000000    0.000000
     7        -0.436661173414351    2.246e-04    0.013168    0.000000    0.000000    0.000000
     8        -0.436661923117424    6.820e-05    0.013162    0.000000    0.000000    0.000000
     9        -0.436663137519489    2.786e-05    0.013162    0.000000    0.000000    0.000000
    10        -0.436661966587646    1.054e-05    0.013161    0.000000    0.000000    0.000000
    11        -0.436662076828057    5.204e-06    0.013161    0.000000    0.000000    0.000000
    12        -0.436662037572965    2.533e-06    0.013161    0.000000    0.000000    0.000000
    13        -0.436662031122313    1.359e-06    0.013162    0.000000    0.000000    0.000000
    14        -0.436662057963533    6.377e-07    0.013162    0.000000    0.000000    0.000000
    15        -0.436662056562852    1.722e-07    0.013162    0.000000    0.000000    0.000000
    16        -0.436662056433852    1.051e-07    0.013162    0.000000    0.000000    0.000000
    17        -0.436662057231070    2.976e-08    0.013162    0.000000    0.000000    0.000000
    18        -0.436662056812619    1.370e-08    0.013162    0.000000    0.000000    0.000000
    19        -0.436662056577144    4.276e-09    0.013162    0.000000    0.000000    0.000000
    20        -0.436662056553546    1.828e-09    0.013162    0.000000    0.000000    0.000000
    21        -0.436662056539635    7.535e-10    0.013162    0.000000    0.000000    0.000000
    22        -0.436662056538479    3.078e-10    0.013162    0.000000    0.000000    0.000000
    23        -0.436662056541413    1.394e-10    0.013162    0.000000    0.000000    0.000000
    24        -0.436662056540726    7.286e-11    0.013162    0.000000    0.000000    0.000000

    Iterations converged.


    Largest TIA Amplitudes:
              5  67        -0.0136948320
              5  65        -0.0121355485
              2   2         0.0098659407
              5  66        -0.0087819194
              6  93        -0.0087324835
              4  65        -0.0083292877
              3   6        -0.0076465825
              3   1         0.0060319939
              2   6        -0.0057884107
              2   4        -0.0054078834

    Largest Tia Amplitudes:
              4  68        -0.0137635567
              4  66        -0.0133309368
              2   6        -0.0088436250
              4  65        -0.0078358923
              2   2         0.0065354701
              3   2        -0.0058166928
              2   1         0.0053339448
              5 109         0.0050863061
              1  11        -0.0050696408
              4  82         0.0042908766

    Largest TIJAB Amplitudes:
      6   4 100  70         0.0170861473
      4   2  70  12         0.0124591486
      6   2 100  12        -0.0124108513
      6   4  55  22        -0.0114754152
      7   5  50  10        -0.0089342956
      6   4 115  81         0.0086550822
      6   4 100  81        -0.0085907182
      7   3  97   6        -0.0085859721
      4   0  70  18         0.0085505768
      6   0 100  18        -0.0085168340

    Largest Tijab Amplitudes:
      5   4  50  10        -0.0087441265
      5   2  99   6        -0.0082817289
      3   1  78  65        -0.0079034547
      4   2  70  10         0.0075660998
      3   1  69  65        -0.0075142398
      5   2 100   8        -0.0074832425
      5   4  53  10        -0.0074768772
      5   4  99  68        -0.0074695749
      5   4  99  71        -0.0074624315
      4   2  68   6        -0.0071059972

    Largest TIjAb Amplitudes:
      7   5  97  99        -0.0196381893
      2   3  12  12         0.0173269095
      4   3  70  12        -0.0169316687
      6   3 100  12         0.0167884509
      4   1  22  65         0.0166234082
      6   1  55  65         0.0165971126
      2   1  77  65         0.0164969884
      4   1  70  18        -0.0157669537
      6   1 100  18         0.0156697277
      7   5 103  99        -0.0151465778

    SCF energy       (wfn)                    = -150.873592278557197
    Reference energy (file100)                = -150.873592278559016

    Opposite-spin MP2 correlation energy      =   -0.314142692480828
    Same-spin MP2 correlation energy          =   -0.101581493520544
    MP2 correlation energy                    =   -0.415724186001371
      * MP2 total energy                      = -151.289316464560386

    Opposite-spin CCSD correlation energy     =   -0.341814101164359
    Same-spin CCSD correlation energy         =   -0.094847955376368
    CCSD correlation energy                   =   -0.436662056540726
      * CCSD total energy                     = -151.310254335099756

            **************************
            *                        *
            *        CCTRIPLES       *
            *                        *
            **************************


    Wave function   =    CCSD_T
    Reference wfn   =      UHF

    Nuclear Rep. energy (wfn)                =   21.934503343622758
    SCF energy          (wfn)                = -150.873592278557197
    Reference energy    (file100)            = -150.873592278559016
    CCSD energy         (file100)            =   -0.436662056540726
    Total CCSD energy   (file100)            = -151.310254335099756

    Number of ijk index combinations:
    Spin Case AAA:                                  56
    Spin Case BBB:                                  20
    Spin Case AAB:                                 168
    Spin Case ABB:                                 120
    AAA (T) energy                             =   -0.000392654355960
    BBB (T) energy                             =   -0.000198089405416
    AAB (T) energy                             =   -0.006677863713867
    ABB (T) energy                             =   -0.004948892362379
    (T) energy                                   =   -0.012217499837622
      * CCSD(T) total energy                     = -151.322471834937375

Stephenergy -151.32247183493737
    Psi4 stopped on: Wednesday, 10 March 2021 10:54AM
    Psi4 wall time for execution: 0:01:25.49

*** Psi4 exiting successfully. Buy a developer a beer!
