 --invoking executable--
/apps/eb/cfour/2.1-iompi-2018a-serial/bin/xjoda


   *************************************************************************
         <<<     CCCCCC     CCCCCC   |||     CCCCCC     CCCCCC   >>>
       <<<      CCC        CCC       |||    CCC        CCC         >>>
      <<<      CCC        CCC        |||   CCC        CCC            >>>
    <<<        CCC        CCC        |||   CCC        CCC              >>>
      <<<      CCC        CCC        |||   CCC        CCC            >>>
       <<<      CCC        CCC       |||    CCC        CCC         >>>
         <<<     CCCCCC     CCCCCC   |||     CCCCCC     CCCCCC   >>>
   *************************************************************************

     ****************************************************************
     * CFOUR Coupled-Cluster techniques for Computational Chemistry *
     ****************************************************************
 

   Department of Chemistry                Institut fuer Physikalische Chemie
   University of Florida                  Universitaet Mainz
   Gainesville, FL 32611, USA             D-55099 Mainz, Germany

   Department of Chemistry                Fakultaet fuer Chemie und Biowiss.
   Johns Hopkins University               Karlsruher Institut fuer Technologie
   Baltimore, MD 21218, USA               D-76131 Karlsruhe, Germany

   Department of Chemistry                Department of Physical Chemistry
   Southern Methodist University          Eotvos Lorand University
   Dallas, TX 75275, USA                  H-1053 Budapest, Hungary

 
                       Version 2.1
 
                     c4-15.compute.lan                                 
                     Tue Feb  9 03:47:08 EST 2021                      
                     integer*8 version is running
 
********************************************************************************
*                          Input from ZMAT file                                *
********************************************************************************
CFOUR Optimization JOB                                                          
O   -1.319999694383    0.193183100495    0.000000000000                         
H   -0.833153237051   -0.650276777984    0.000000000000                         
O    1.319999694383   -0.193183100495    0.000000000000                         
H    0.833153237051    0.650276777984    0.000000000000                         
                                                                                
*CFOUR(CALC=CCSDT                                                               
       BASIS=AUG-PVTZ                                                           
       SCF_CONV=12                                                              
       CC_CONV=12                                                               
       SCF_MAXCYC=200                                                           
       CC_MAXCYC=150                                                            
       CC_PROGRAM=MRCC                                                          
       DERIV_LEVEL=1                                                            
       FROZEN_CORE=ON                                                           
       LINEQ_CONV=12                                                            
       OPT_MAXCYC=400                                                           
       REFERENCE=UHF                                                            
       MULTIPLICITY=3                                                           
       COORDINATES=CARTESIAN                                                    
       MEMORY=40                                                                
       MEM_UNIT=GB                                                              
       UNITS=ANGSTROM)                                                          
********************************************************************************
    -------------------------------------------------------------------
                    CFOUR Control Parameters 
    -------------------------------------------------------------------
        External           Internal           Value            Units
          Name               Name
    -------------------------------------------------------------------
       ABCDTYPE             IABCDT         STANDARD    [  0]    ***   
       ANHARMONIC           IANHAR         OFF         [  0]    ***   
       ANH_ALGORIT          IANALG         STANDARD    [  0]    ***   
       ANH_DERIVAT          IANDER         SECOND      [  1]    ***   
       ANH_MODE             ANHMOD         VIBRATION   [  0]    ***   
       ANH_STEPSIZ          ICUBST             50000          x 10-6  
       ANH_SYMMETR          IANHSM         ABELIAN     [  0]    ***   
       AO_LADDERS           IAOLAD         SINGLEPASS  [  1]    ***   
       AV_SCF               IAVSCF         OFF         [  0]    ***   
       BASIS                IBASIS         AUG-PVTZ    [ 34]    ***   
       BOTHVECTORS          BOTHVC         OFF         [  0]    ***   
       BOX_POTENT           IPIAB          OFF         [  0]    ***   
       BREIT                IBREIT         OFF         [  0]    ***   
       BRUCK_CONV           IBRTOL          10D-  4             ***   
       BRUECKNER            IBRKNR         OFF         [  0]    ***   
       BUFFERSIZE           IBUFFS              4096            ***   
       CACHE_RECS           ICHREC             10               ***   
       CALCLEVEL            ICLLVL         CCSDT       [ 18]    ***   
       CCORBOPT             ICCORB         OFF         [  0]  x 0.01  
       CC_CONV              ICCCNV          10D- 12             ***   
       CC_EXPORDER          ICCEOR              5               ***   
       CC_EXTRAPOL          ICCEXT         DIIS        [  1]    ***   
       CC_GUESS             ICCGES         MP2         [  0]    ***   
       CC_MAXCYC            ICCCYC            150              cycles 
       CC_PROGRAM           ICCPRO         MRCC        [  2]    ***   
       CHARGE               ICHRGE              0               ***   
       CHOLESKY             ICHOLE         OFF         [  0]    ***   
       CIS_CONV             ICISTL              5               ***   
       COMM_SIZE            IPSIZE            ***               ***   
       CONSTANT             ICONST         OLD         [  1]    ***   
       CONTINUUM            ICONTU         NONE        [  0]    ***   
       CONTRACTION          ICNTYP         GENERAL     [  1]    ***   
       COORDINATES          ICOORD         CARTESIAN   [  1]    ***   
       CPHF_CONVER          ICPHFT          10D- 16             ***   
       CPHF_MAXCYC          ICPHFC             64              cycles 
       CUBIC                ICUBIC         OFF         [  0]    ***   
       CURVILINEAR          ICURVY         OFF         [  0]    ***   
       DBOC                 IDBOC          OFF         [  0]    ***   
       DCT                  IDCT           OFF         [  0]    ***   
       DERIV_LEV            IDRLVL         FIRST       [  1]    ***   
       DEVMEM_SIZE          IDVMEM         *********           MByte  
       DIAG_MRCC            IEOMST          10D-  0             ***   
       DIFF_TYPE            IDIFTY         RELAXED     [  0]    ***   
       DIRECT               IDIRCT         OFF         [  0]    ***   
       DROPMO               IDRPMO      NONE         
       ECP                  IECP           OFF         [  0]    ***   
       EIGENVECTOR          IVEC                1               ***   
       EL_ANHARM            IELANH         OFF         [  0]    ***   
       EOMFOLLOW            IEOMSR         ENERGY      [  0]    ***   
       EOMIP                IEOMIP         OFF         [  0]    ***   
       EOMLEVEL             HBARFM         SAME        [  0]    ***   
       EOM_MRCC             IMRCCE         NEW         [  1]    ***   
       EOM_NONIT            EOMNON         OFF         [  0]    ***   
       EOM_NSING            IEOMSI          10D-  0             ***   
       EOM_NSTATES          IMRCCD         DAVIDSON    [  0]    ***   
       EOM_NTRIP            IEOMTR          10D-  0             ***   
       EOM_ORDER            IEXORD         ENERGY      [  0]    ***   
       EOM_PROPSTA          IEOMST              0               ***   
       ESTATE_CONV          IEXTOL          10D-  5             ***   
       ESTATE_DIAG          IEXDIG         ITERATIVE   [  0]    ***   
       ESTATE_LOCK          IESLOC         ON          [  1]    ***   
       ESTATE_MAXC          IEXMXC             40               ***   
       ESTATE_PROP          IEXPRP         OFF         [  0]    ***   
       EVAL_HESS            IRECAL              0            # of cyc.
       EXCITATION           IEXCIT              0               ***   
       EXCITE               IEXCIT         NONE        [  0]    ***   
       EXTERN_POT           IEXPOT         OFF         [  0]    ***   
       FCGRADNEW            IFCGNW         OFF         [  0]    ***   
       FC_FIELD             IFINFC              0             x 10-6  
       FD_CALTYPE           IFDCAL         GRADONLY    [  0]    ***   
       FD_PROJECT           IFDPRJ         OFF         [  1]    ***   
       FD_STEPSIZE          IDISFD              0            10-4 bohr
       FD_USEGROUP          IFDGRP         FULL        [  0]    ***   
       FILE_RECSIZ          IFLREC              4096           words  
       FINITE_PERT          IFIPER              0             x 10-6  
       FIXGEOM              IFIXGM         OFF         [  0]    ***   
       FOCK                 IFOCK          AO          [  1]    ***   
       FREQ_ALGORI          IVIALG         STANDARD    [  0]    ***   
       FROZEN_CORE          IFROCO         ON          [  1]    ***   
       GAMMA_ABCD           IGABCD         STORE       [  0]    ***   
       GAMMA_ABCI           IGABCI         STORE       [  0]    ***   
       GENBAS_1             IGNBS1              0               ***   
       GENBAS_2             IGNBS2              0               ***   
       GENBAS_3             IGNBS3              0               ***   
       GENBAS_4             IGNBS4              0               ***   
       GEO_CONV             ICONTL              5              H/bohr 
       GEO_MAXCYC           IOPTCY            400               ***   
       GEO_MAXSTEP          IMXSTP            300            millibohr
       GEO_METHOD           INR            SINGLE_POINT[  5]    ***   
       GIAO                 IGIAO          OFF         [  1]    ***   
       GIMIC                IGIMIC         OFF         [  0]    ***   
       GRID                 IGRID          OFF         [  0]    ***   
       GRID_ALGO            IGALGO         SERIAL      [  0]    ***   
       GUESS                IGUESS         MOREAD      [  0]    ***   
       HBAR                 IHBAR          OFF         [  0]    ***   
       HESS_TYPE            IHESTP         SCF         [  0]    ***   
       HF2_FILE             IHF2Fl         USE         [  1]    ***   
       HFSTABILITY          ISTABL         OFF         [  0]    ***   
       INCORE               INCORE         OFF         [  0]    ***   
       INPUT_MRCC           IMRCC          ON          [  1]    ***   
       INTEGRALS            INTTYP         VMOL        [  1]    ***   
       JODA_PRINT           IJPRNT              0               ***   
       KEYWORD_OUT          IDMPKW         NO          [  0]    ***   
       LINDEP_TOL           ILINDP              8               ***   
       LINEQ_CONV           IZTACN          10D- 12           cycles  
       LINEQ_EXPOR          ILMAXD              5               ***   
       LINEQ_MAXCY          ILMAXC            100               ***   
       LINEQ_TYPE           ILTYPE         DIIS        [  1]    ***   
       LOCK_ORBOCC          ILOCOC         OFF         [  0]    ***   
       MEMORY_SIZE          IMEMSZ         *********           words  
       MEM_UNIT             IMEMU          GB          [  3]    ***   
       MRCC                 IMRCCC         OFF         [  0]    ***   
       MULTIPLICTY          IMULTP              3               ***   
       NACOUPLING           IVCOUP         OFF         [  0]    ***   
       NEGEVAL              IDIE           ABORT       [  0]    ***   
       NEWNORM              INEWNO         OFF         [  0]    ***   
       NON-HF               INONHF         OFF         [  0]    ***   
       NTOP_TAMP            ITOPT2             15               ***   
       NUC_MODEL            INUCMO         POINT       [  0]    ***   
       OCCUPATION           IOCCU   ESTIMATED BY SCF 
       OPEN-SHELL           IOPEN          SPIN-ORBITAL[  0]    ***   
       OPTVIB               IOPTVB         OFF         [  0]    ***   
       ORBITALS             IORBTP         STANDARD    [  0]    ***   
       PARALLEL             IPARAL         ON          [  1]    ***   
       PARA_INT             IPINTS         ON          [  1]    ***   
       PARA_PRINT           IPPRIN              0               ***   
       PERT_ORB             IPTORB         CANONICAL   [  1]    ***   
       POINTS               IGRDFD              0               ***   
       PRINT                IPRNT               0               ***   
       PROPS                IPROPS         OFF         [  0]    ***   
       PROP_INTEGR          IINTYP         INTERNAL    [  0]    ***   
       PSI                  IPSI           OFF         [  0]    ***   
       QC_ALG               IQCALG         FLM         [  0]    ***   
       QC_LINALG            IQCLIN         TRIDIAG     [  2]    ***   
       QC_MAXCYC            IQCMAX          10D-100           cycles  
       QC_MAXSCFCY          IQCMSC          10D- 15           cycles  
       QC_RTRUST            IQCRTR          10D-  0           x 10-3  
       QC_SKIPSCF           IQCSKI         OFF         [  0]    ***   
       QC_START             IQCSTA          10D-  1             ***   
       QRHFGUESS            IQGUES         OFF         [  0]    ***   
       QUARTIC              IQUART         OFF         [  0]    ***   
       RAMAN_INT            IRAMIN         OFF         [  0]    ***   
       RAMAN_ORB            IRAMRE         UNRELAXED   [  0]    ***   
       RDO                  IRDOFM         ON          [  1]    ***   
       REDUCE_REPR          REDREP         Ir          [  0]    ***   
       REFERENCE            IREFNC         UHF         [  1]    ***   
       RELATIVIST           IRELAT         OFF         [  0]    ***   
       RELAX_DENS           IRDENS         ON          [  1]    ***   
       RESET_FLAGS          IRESET         OFF         [  0]    ***   
       RESTART_CC           ICCRES         OFF         [  0]    ***   
       ROT_EVEC             ROTVEC              0               ***   
       SAVE_INTS            ISVINT         OFF         [  0]    ***   
       SCALE_ON             ISTCRT              0               ***   
       SCF_CONV             ISCFCV          10D- 12             ***   
       SCF_DAMPING          IDAMP               0             x 10-3  
       SCF_EXPORDE          IRPPOR              6               ***   
       SCF_EXPSTAR          IRPPLS              8               ***   
       SCF_EXTRAPO          IRPP           ON          [  1]    ***   
       SCF_MAXCYC           ISCFCY            200              cycles 
       SCF_NOSTOP           ISCFST         OFF         [  0]    ***   
       SCF_PRINT            ISCFPR              0               ***   
       SCF_PROG             ISCFPR         SCF         [  0]    ***   
       SD_FIELD             IFINSD              0             x 10-6  
       SOPERT               IPERSO         OFF         [  0]    ***   
       SPHERICAL            IDFGHI         ON          [  1]    ***   
       SPINORBIT            ISOCAL         OFF         [  0]    ***   
       SPINROTATIO          ISRCON         OFF         [  0]    ***   
       SPIN_FLIP            ISPFLP         OFF         [  0]    ***   
       SPIN_ORBIT           ISPORB         OFF         [  0]    ***   
       SPIN_SCAL            ISCSMP         OFF         [  0]    ***   
       STEEPSCALE           ISTPSC              1000          x 10-3  
       SUBGROUP             ISUBGP         DEFAULT     [  0]    ***   
       SUBGRPAXIS           ISBXYZ         X           [  0]    ***   
       SYMMETRY             ISYM           ON          [  0]    ***   
       SYM_CHECK            ISYMCK         OVERRIDE    [  1]    ***   
       T3_EXTRAPOL          IT3EXT         OFF         [  0]    ***   
       T4_EXTRAPOL          IT4EXP         OFF         [  0]    ***   
       TAMP_SUM             IEVERY              5               ***   
       TESTSUITE            ITESTS         OFF         [  0]    ***   
       THERMOCH             ITHERM         OFF         [  0]    ***   
       TOL_CHOLESK          ITOLCH          10D-  4             ***   
       TRANGRAD             IRESRM         OFF         [  0]    ***   
       TRANS_INV            ITRAIN         USE         [  0]    ***   
       TREAT_PERT           ITREAT         SIMULTANEOUS[  0]    ***   
       TRIP_ALGORI          ITRALG         NORMAL      [  0]    ***   
       UIJ_THRESHO          IUIJTH              1               ***   
       UNITS                IUNITS         ANGSTROM    [  0]    ***   
       UNOS                 IUNOS          OFF         [  0]    ***   
       UPDATE_HESS          IHUPDT         ON          [  1]    ***   
       VIBPHASE             ISETPH         STANDARD    [  0]    ***   
       VIBRATION            IVIB           NO          [  0]    ***   
       VIB_ALGORIT          IGEALG         STANDARD    [  0]    ***   
       VNATORB              IVNORB         OFF         [  0]    ***   
       VTRAN                IVTRAN         FULL/PARTIAL[  0]    ***   
       XFIELD               IXEFLD              0             x 10-6  
       XFORM_TOL            IXFTOL          10D- 11             ***   
       YFIELD               IYEFLD              0             x 10-6  
       ZFIELD               IZEFLD              0             x 10-6  
       ZSCALE_EXP           IZEXPS         OFF         [  0]    ***   
    -------------------------------------------------------------------
  @GETXYZ-I,     4 atoms read from ZMAT.
   Rotational constants (in cm-1): 
          0.2848323769             0.2904990838            14.6016981831
   Rotational constants (in MHz): 
       8539.0610346947          8708.9446589314        437747.9602553335
********************************************************************************
   The full molecular point group is C2h .
   The largest Abelian subgroup of the full molecular point group is C2h .
   The computational point group is C2h .
********************************************************************************


 ----------------------------------------------------------------
         Coordinates used in calculation (QCOMP) 
 ----------------------------------------------------------------
 Z-matrix   Atomic            Coordinates (in bohr)
  Symbol    Number           X              Y              Z
 ----------------------------------------------------------------
     O         8        -2.52051750     0.04985733     0.00000000
     H         1        -1.40817526    -1.41631159     0.00000000
     O         8         2.52051750    -0.04985733     0.00000000
     H         1         1.40817526     1.41631159     0.00000000
 ----------------------------------------------------------------
 
   Interatomic distance matrix (Angstroms) 
 
                 O             H             O             H    
                [ 1]        [ 2]        [ 3]        [ 4]
  O    [ 1]     0.00000
  H    [ 2]     0.97388     0.00000
  O    [ 3]     2.66812     2.20114     0.00000
  H    [ 4]     2.20114     2.11377     0.97388     0.00000
 rotcon2
   Rotational constants (in cm-1): 
         14.6016981831             0.2904990838             0.2848323769
   Rotational constants (in MHz): 
     437747.9602553304          8708.9446589314          8539.0610346947
  There are   2 frozen-core orbitals.
  There are   2 frozen-core orbitals.
  There are  138 basis functions.
 @CHECKOUT-I, Total execution time (CPU/WALL):        0.19/       0.24 seconds.
--executable xjoda finished with status     0 in        0.30 seconds (walltime).
 --invoking executable--
/apps/eb/cfour/2.1-iompi-2018a-serial/bin/xvmol
 SERIAL VERSION OF MOLECULE STARTED
********************************************************************************
                    INPUT FROM MOL FILE
********************************************************************************
INTGRL        1    0    1    0    0    0    0    0    0                         
         *** CFOUR Program System (Release V0.1) ***                            
CFOUR Optimization JOB                                                          
    2    2 Z  XY      0.10E-08              0    0                              
   9999.00      3.00                                                            
          8.00000000    1    4    1    1    1    1                              
O #1  -2.520517503832856   0.049857330184271   0.000000000000000                
   11    5                                                                      
   15330.0000000000       5.080000000000000E-004 -1.150000000000000E-004        
  0.000000000000000E+000  0.000000000000000E+000  0.000000000000000E+000        
   2299.00000000000       3.929000000000000E-003 -8.950000000000000E-004        
  0.000000000000000E+000  0.000000000000000E+000  0.000000000000000E+000        
   522.400000000000       2.024300000000000E-002 -4.636000000000000E-003        
  0.000000000000000E+000  0.000000000000000E+000  0.000000000000000E+000        
   147.300000000000       7.918100000000000E-002 -1.872400000000000E-002        
  0.000000000000000E+000  0.000000000000000E+000  0.000000000000000E+000        
   47.5500000000000       0.230687000000000      -5.846300000000000E-002        
  0.000000000000000E+000  0.000000000000000E+000  0.000000000000000E+000        
   16.7600000000000       0.433118000000000      -0.136463000000000             
  0.000000000000000E+000  0.000000000000000E+000  0.000000000000000E+000        
   6.20700000000000       0.350260000000000      -0.175740000000000             
  0.000000000000000E+000  0.000000000000000E+000  0.000000000000000E+000        
   1.75200000000000       4.272800000000000E-002  0.160934000000000             
   1.00000000000000       0.000000000000000E+000  0.000000000000000E+000        
  0.688200000000000      -8.154000000000000E-003  0.603418000000000             
  0.000000000000000E+000  0.000000000000000E+000  0.000000000000000E+000        
  0.238400000000000       2.381000000000000E-003  0.378765000000000             
  0.000000000000000E+000   1.00000000000000       0.000000000000000E+000        
  7.376000000000001E-002  0.000000000000000E+000  0.000000000000000E+000        
  0.000000000000000E+000  0.000000000000000E+000   1.00000000000000             
    6    4                                                                      
   34.4600000000000       1.592800000000000E-002  0.000000000000000E+000        
  0.000000000000000E+000  0.000000000000000E+000                                
   7.74900000000000       9.974000000000000E-002  0.000000000000000E+000        
  0.000000000000000E+000  0.000000000000000E+000                                
   2.28000000000000       0.310492000000000       0.000000000000000E+000        
  0.000000000000000E+000  0.000000000000000E+000                                
  0.715600000000000       0.491026000000000        1.00000000000000             
  0.000000000000000E+000  0.000000000000000E+000                                
  0.214000000000000       0.336337000000000       0.000000000000000E+000        
   1.00000000000000       0.000000000000000E+000                                
  5.974000000000000E-002  0.000000000000000E+000  0.000000000000000E+000        
  0.000000000000000E+000   1.00000000000000                                     
    3    3                                                                      
   2.31400000000000        1.00000000000000       0.000000000000000E+000        
  0.000000000000000E+000                                                        
  0.645000000000000       0.000000000000000E+000   1.00000000000000             
  0.000000000000000E+000                                                        
  0.214000000000000       0.000000000000000E+000  0.000000000000000E+000        
   1.00000000000000                                                             
    2    2                                                                      
   1.42800000000000        1.00000000000000       0.000000000000000E+000        
  0.500000000000000       0.000000000000000E+000   1.00000000000000             
          1.00000000    1    3    1    1    1                                   
H #2  -1.408175262993166  -1.416311591973666   0.000000000000000                
    6    4                                                                      
   33.8700000000000       6.068000000000000E-003  0.000000000000000E+000        
  0.000000000000000E+000  0.000000000000000E+000                                
   5.09500000000000       4.530800000000000E-002  0.000000000000000E+000        
  0.000000000000000E+000  0.000000000000000E+000                                
   1.15900000000000       0.202822000000000       0.000000000000000E+000        
  0.000000000000000E+000  0.000000000000000E+000                                
  0.325800000000000       0.503903000000000        1.00000000000000             
  0.000000000000000E+000  0.000000000000000E+000                                
  0.102700000000000       0.383421000000000       0.000000000000000E+000        
   1.00000000000000       0.000000000000000E+000                                
  2.526000000000000E-002  0.000000000000000E+000  0.000000000000000E+000        
  0.000000000000000E+000   1.00000000000000                                     
    3    3                                                                      
   1.40700000000000        1.00000000000000       0.000000000000000E+000        
  0.000000000000000E+000                                                        
  0.388000000000000       0.000000000000000E+000   1.00000000000000             
  0.000000000000000E+000                                                        
  0.102000000000000       0.000000000000000E+000  0.000000000000000E+000        
   1.00000000000000                                                             
    2    2                                                                      
   1.05700000000000        1.00000000000000       0.000000000000000E+000        
  0.247000000000000       0.000000000000000E+000   1.00000000000000             
FINISH                                                                          
 
********************************************************************************
 ONE- AND TWO-ELECTRON INTEGRALS OVER SYMMETRY-ADAPTED AOS ARE CALCULATED.

  SPHERICAL HARMONICS ARE USED.
  
  INTEGRALS LESS THAN  0.10E-13 ARE NEGLECTED.

  NUCLEAR REPULSION ENERGY :   25.4841542840 A.U.
  @MOLECU-I, ONE ELECTRON INTEGRALS (CPU/WALL):        0.04/       0.04 SECONDS.
  @TWOEL-I,    1246094 INTEGRALS OF SYMMETRY TYPE  I I I I
  @TWOEL-I,    4620815 INTEGRALS OF SYMMETRY TYPE  I J I J
  @TWOEL-I,    2438161 INTEGRALS OF SYMMETRY TYPE  I I J J
  @TWOEL-I,    3358092 INTEGRALS OF SYMMETRY TYPE  I J K L
  @TWOEL-I, TOTAL NUMBER OF 2-E INTEGRALS   11663162.
  @MOLECU-I, TWO ELECTRON INTEGRALS (CPU/WALL):        2.90/       3.23 SECONDS.
 @CHECKOUT-I, Total execution time (CPU/WALL):        2.95/       3.28 seconds.

Running with 12 threads/proc

--executable xvmol finished with status     0 in        3.32 seconds (walltime).
 --invoking executable--
/apps/eb/cfour/2.1-iompi-2018a-serial/bin/xvmol2ja
 @GETMEM-I,  Allocated   38146 MB of main memory.
 @CHECKOUT-I, Total execution time (CPU/WALL):        0.01/       0.01 seconds.
--executable xvmol2ja finished with status     0 in        0.06 seconds (walltime).
 --invoking executable--
/apps/eb/cfour/2.1-iompi-2018a-serial/bin/xvscf
  There are  138 functions in the AO basis.

  There are 4 irreducible representations.

       Irrep        # of functions
         1                 46
         2                 23
         3                 46
         4                 23


  Parameters for SCF calculation: 
        SCF reference function:  UHF  
  Maximum number of iterations:  200
     Full symmetry point group: C2h 
     Computational point group: C2h 
        Initial density matrix: CORE                   
     SCF convergence tolerance: 10**(-12)
  DIIS convergence acceleration:  ON
          Latest start for DIIS:   8
                     DIIS order:   6

  Memory information:     904766 words required.
  Fock matrices are constructed from AO integral file.
 @GETMEM-I,  Allocated       6 MB of main memory.
  Initialization and symmetry analysis required      0.002 seconds.

  @INITGES-I, Occupancies from core Hamiltonian:

          Alpha population by irrep:   4    1    4    1
           Beta population by irrep:   3    1    3    1


 total no. of electrons in initial guess :  0.000000000000000E+000
 total no. of electrons in initial guess :  0.000000000000000E+000
  --------------------------------------------------------------------
  Iteration         Total Energy            Largest Density Difference
  --------------------------------------------------------------------
       0            25.484154284038858              0.0000000000D+00
   current occupation vector 
     4  1  4  1
     3  1  3  1
       1          -128.458448991345335              0.3004788420D+01
   current occupation vector 
     4  1  4  1
     3  1  3  1
       2          -131.452829443481164              0.1079262857D+02
   current occupation vector 
     5  1  4  0
     3  1  4  0
       3          -144.999790232651463              0.1080027578D+02
   current occupation vector 
     4  1  4  1
     3  1  3  1
       4          -143.051046142676228              0.7133823248D+01
   current occupation vector 
     5  1  4  0
     4  0  4  0
       5          -148.218514133777376              0.7133761442D+01
   current occupation vector 
     4  1  4  1
     3  1  3  1
       6          -149.789557311609599              0.8472105178D+00
   current occupation vector 
     4  1  4  1
     3  1  3  1
       7          -150.556656088250719              0.3847554334D+00
   current occupation vector 
     4  1  4  1
     3  1  3  1
       8          -150.768987705424479              0.2296462302D+00
   current occupation vector 
     4  1  4  1
     3  1  3  1
       9          -150.837936752736539              0.7182538225D-01
   current occupation vector 
     4  1  4  1
     3  1  3  1
      10          -150.838630803027826              0.8124902479D-02
   current occupation vector 
     4  1  4  1
     3  1  3  1
      11          -150.839080809322809              0.8127741261D-02
   current occupation vector 
     4  1  4  1
     3  1  3  1
      12          -150.839333487093626              0.7783777389D-02
   current occupation vector 
     4  1  4  1
     3  1  3  1
      13          -150.839375544581515              0.3428496455D-02
   current occupation vector 
     4  1  4  1
     3  1  3  1
      14          -150.839377682607903              0.8140223963D-03
   current occupation vector 
     4  1  4  1
     3  1  3  1
      15          -150.839377854677053              0.1230486849D-03
   current occupation vector 
     4  1  4  1
     3  1  3  1
      16          -150.839377912383128              0.8717866188D-04
   current occupation vector 
     4  1  4  1
     3  1  3  1
      17          -150.839377923526825              0.3922473952D-04
   current occupation vector 
     4  1  4  1
     3  1  3  1
      18          -150.839377926485753              0.1859244635D-04
   current occupation vector 
     4  1  4  1
     3  1  3  1
      19          -150.839377927729544              0.1433396190D-04
   current occupation vector 
     4  1  4  1
     3  1  3  1
      20          -150.839377928162065              0.1251626853D-04
   current occupation vector 
     4  1  4  1
     3  1  3  1
      21          -150.839377928180312              0.2804196584D-05
   current occupation vector 
     4  1  4  1
     3  1  3  1
      22          -150.839377928178806              0.2010531008D-06
   current occupation vector 
     4  1  4  1
     3  1  3  1
      23          -150.839377928178777              0.9714005650D-07
   current occupation vector 
     4  1  4  1
     3  1  3  1
      24          -150.839377928177839              0.5671205988D-07
   current occupation vector 
     4  1  4  1
     3  1  3  1
      25          -150.839377928179033              0.8473005408D-08
   current occupation vector 
     4  1  4  1
     3  1  3  1
      26          -150.839377928178521              0.2769312613D-08
   current occupation vector 
     4  1  4  1
     3  1  3  1
      27          -150.839377928177669              0.1004847816D-08
   current occupation vector 
     4  1  4  1
     3  1  3  1
      28          -150.839377928176447              0.7773661714D-09
   current occupation vector 
     4  1  4  1
     3  1  3  1
      29          -150.839377928179090              0.1092219537D-08
   current occupation vector 
     4  1  4  1
     3  1  3  1
      30          -150.839377928177896              0.2526011067D-09
   current occupation vector 
     4  1  4  1
     3  1  3  1
      31          -150.839377928178834              0.1780545156D-10
   current occupation vector 
     4  1  4  1
     3  1  3  1
      32          -150.839377928178891              0.3007621929D-11
   current occupation vector 
     4  1  4  1
     3  1  3  1
      33          -150.839377928178806              0.2977486313D-11
   current occupation vector 
     4  1  4  1
     3  1  3  1
      34          -150.839377928178322              0.3487293787D-11
   current occupation vector 
     4  1  4  1
     3  1  3  1
      35          -150.839377928178408              0.1253143422D-11
   current occupation vector 
     4  1  4  1
     3  1  3  1
      36          -150.839377928179175              0.2801536780D-11
   current occupation vector 
     4  1  4  1
     3  1  3  1
      37          -150.839377928177896              0.7388353818D-11
   current occupation vector 
     4  1  4  1
     3  1  3  1
      38          -150.839377928177953              0.1299797769D-10
   current occupation vector 
     4  1  4  1
     3  1  3  1
      39          -150.839377928179090              0.1244075676D-10
   current occupation vector 
     4  1  4  1
     3  1  3  1
      40          -150.839377928176901              0.3365257378D-10
   current occupation vector 
     4  1  4  1
     3  1  3  1
      41          -150.839377928178521              0.5034864192D-10
   current occupation vector 
     4  1  4  1
     3  1  3  1
      42          -150.839377928178919              0.1302491448D-10
   current occupation vector 
     4  1  4  1
     3  1  3  1
      43          -150.839377928179061              0.2639194419D-11
   current occupation vector 
     4  1  4  1
     3  1  3  1
      44          -150.839377928178465              0.1655786619D-11
   current occupation vector 
     4  1  4  1
     3  1  3  1
      45          -150.839377928178379              0.1529935900D-10
   current occupation vector 
     4  1  4  1
     3  1  3  1
      46          -150.839377928177669              0.1987095211D-10
   current occupation vector 
     4  1  4  1
     3  1  3  1
      47          -150.839377928178635              0.6028552657D-11
   current occupation vector 
     4  1  4  1
     3  1  3  1
      48          -150.839377928178408              0.1365449420D-11
   current occupation vector 
     4  1  4  1
     3  1  3  1
      49          -150.839377928178635              0.1251956872D-11
   current occupation vector 
     4  1  4  1
     3  1  3  1
      50          -150.839377928177925              0.1429981134D-11
   current occupation vector 
     4  1  4  1
     3  1  3  1
      51          -150.839377928178550              0.1633554403D-11
   current occupation vector 
     4  1  4  1
     3  1  3  1
      52          -150.839377928178806              0.1026373431D-11
   current occupation vector 
     4  1  4  1
     3  1  3  1
      53          -150.839377928179289              0.3075831256D-11
   current occupation vector 
     4  1  4  1
     3  1  3  1
      54          -150.839377928179800              0.6990200085D-11
   current occupation vector 
     4  1  4  1
     3  1  3  1
      55          -150.839377928178436              0.4146086252D-11
   current occupation vector 
     4  1  4  1
     3  1  3  1
      56          -150.839377928178408              0.1024756668D-11
   current occupation vector 
     4  1  4  1
     3  1  3  1
      57          -150.839377928178436              0.1403641092D-11
   current occupation vector 
     4  1  4  1
     3  1  3  1
      58          -150.839377928178749              0.1087175489D-11
   current occupation vector 
     4  1  4  1
     3  1  3  1

  SCF has converged.

 Density matrix saved to file den.dat
 total alpha spin electron number:   10.0000000000001     
 total  beta spin electron number:   8.00000000000003     
     E(SCF)=      -150.839377928178664              0.7505662758D-12

  Eigenvector printing suppressed.


       The average multiplicity is    3.0099410
  The expectation value of S**2 is    2.0149362

 @PUTMOS-I, Writing converged MOs to NEWMOS. 
 @PUTMOS-I, Symmetry   1 Full Blocks 11 Partial Blocksize   2
 @PUTMOS-I, Symmetry   2 Full Blocks  5 Partial Blocksize   3
 @PUTMOS-I, Symmetry   3 Full Blocks 11 Partial Blocksize   2
 @PUTMOS-I, Symmetry   4 Full Blocks  5 Partial Blocksize   3
 @PUTFOCK-I, Writing converged Fock matrix to NEWFOCK. 
 @PUTFOCK-I, Symmetry   1 Full Blocks 11 Partial Blocksize   2
 @PUTFOCK-I, Symmetry   2 Full Blocks  5 Partial Blocksize   3
 @PUTFOCK-I, Symmetry   3 Full Blocks 11 Partial Blocksize   2
 @PUTFOCK-I, Symmetry   4 Full Blocks  5 Partial Blocksize   3


 
  ORBITAL EIGENVALUES (ALPHA)  (1H = 27.2113834 eV)

       MO #        E(hartree)               E(eV)           FULLSYM    COMPSYM
       ----   --------------------   --------------------   -------   ---------
    1    70         -20.6532927908        -562.0046686019      Bu        Bu (3)
    2     1         -20.6532819434        -562.0043734304      Ag        Ag (1)
    3     2          -1.4148843576         -38.5009607200      Ag        Ag (1)
    4    71          -1.3950723837         -37.9618495046      Bu        Bu (3)
    5     3          -0.7163040189         -19.4916232891      Ag        Ag (1)
    6    72          -0.7029487706         -19.1282085071      Bu        Bu (3)
    7     4          -0.6739080447         -18.3379701809      Ag        Ag (1)
    8    73          -0.6512801122         -17.7222328325      Bu        Bu (3)
    9    47          -0.5826660359         -15.8551488973      Au        Au (2)
   10   116          -0.5683271862         -15.4649689592      Bg        Bg (4)
  +++++++++++++++++++++++++++++++++++++++++++++++++++++++++++++++++++++++++++++
   11     5           0.0329828807           0.8975098118      Ag        Ag (1)
   12    74           0.0477274466           1.2987298492      Bu        Bu (3)
   13    75           0.1237247748           3.3667222837      Bu        Bu (3)
   14    48           0.1380041993           3.7552851781      Au        Au (2)
   15     6           0.1486089375           4.0438547754      Ag        Ag (1)
   16     7           0.1602000668           4.3592654384      Ag        Ag (1)
   17    76           0.1874072441           5.0996103702      Bu        Bu (3)
   18     8           0.1884763930           5.1287033920      Ag        Ag (1)
   19   117           0.1927893726           5.2460655335      Bg        Bg (4)
   20    77           0.2502554609           6.8097972942      Bu        Bu (3)
   21   118           0.2691898860           7.3250291941      Bg        Bg (4)
   22    78           0.2799013690           7.6165034661      Bu        Bu (3)
   23     9           0.2803961608           7.6299674354      Ag        Ag (1)
   24    49           0.3129721947           8.5164063848      Au        Au (2)
   25    79           0.3619575096           9.8493645677      Bu        Bu (3)
   26    10           0.3883499162          10.5675384641      Ag        Ag (1)
   27    11           0.4472769038          12.1710233151      Ag        Ag (1)
   28    80           0.4586913470          12.4816261067      Bu        Bu (3)
   29    50           0.6140878088          16.7101788068      Au        Au (2)
   30    81           0.6205233692          16.8852993084      Bu        Bu (3)
   31    12           0.6543595678          17.8060290801      Ag        Ag (1)
   32    13           0.6650788654          18.0977159964      Ag        Ag (1)
   33   119           0.7102017784          19.3255728834      Bg        Bg (4)
   34    51           0.7198997410          19.5894678613      Au        Au (2)
   35    14           0.7311033263          19.8943329159      Ag        Ag (1)
   36    82           0.7446334064          20.2625051148      Bu        Bu (3)
   37    83           0.7991533474          21.7460681317      Bu        Bu (3)
   38   120           0.8044696956          21.8907333200      Bg        Bg (4)
   39    15           0.8668230087          23.5874532306      Ag        Ag (1)
   40    52           0.8698818333          23.6706880778      Au        Au (2)
   41    84           0.8720809393          23.7305287958      Bu        Bu (3)
   42   121           0.9120583425          24.8183692408      Bg        Bg (4)
   43    16           0.9139759528          24.8705500702      Ag        Ag (1)
   44    53           0.9337495147          25.4086160442      Au        Au (2)
   45    17           0.9553156797          25.9954612273      Ag        Ag (1)
   46    85           0.9559674491          26.0131967743      Bu        Bu (3)
   47   122           0.9760322247          26.5591870784      Bg        Bg (4)
   48    86           1.0294103880          28.0116807441      Bu        Bu (3)
   49    18           1.0467966356          28.4847845944      Ag        Ag (1)
   50    87           1.0775538444          29.3217307940      Bu        Bu (3)
   51    19           1.0916337868          29.7048655050      Ag        Ag (1)
   52   123           1.1256399571          30.6302204430      Bg        Bg (4)
   53    88           1.1797086334          32.1015039226      Bu        Bu (3)
   54    54           1.2333840530          33.5620863445      Au        Au (2)
   55    89           1.4216641545          38.6854483745      Bu        Bu (3)
   56    20           1.4714020152          40.0388843703      Ag        Ag (1)
   57    21           1.4856170676          40.4256956115      Ag        Ag (1)
   58   124           1.4951189502          40.6842549817      Bg        Bg (4)
   59    55           1.5301599525          41.6377691297      Au        Au (2)
   60    90           1.5771114789          42.9153851159      Bu        Bu (3)
   61    22           1.7351929322          47.2170001520      Ag        Ag (1)
   62    91           1.7503235725          47.6287258065      Bu        Bu (3)
   63    92           1.9622391380          53.3952415061      Bu        Bu (3)
   64    56           2.0633922921          56.1477587647      Au        Au (2)
   65    23           2.0769879743          56.5177160849      Ag        Ag (1)
   66   125           2.0898116701          56.8666665881      Bg        Bg (4)
   67    57           2.1221199379          57.7458192513      Au        Au (2)
   68    24           2.1308233574          57.9826513349      Ag        Ag (1)
   69    93           2.1532519748          58.5929650438      Bu        Bu (3)
   70    25           2.2321566324          60.7400699337      Ag        Ag (1)
   71    58           2.2434608747          61.0476740051      Au        Au (2)
   72   126           2.2771215222          61.9636267881      Bg        Bg (4)
   73    26           2.2984588735          62.5442456347      Ag        Ag (1)
   74    94           2.3067216345          62.7690867930      Bu        Bu (3)
   75    95           2.3449703497          63.8098872469      Bu        Bu (3)
   76   127           2.3509059399          63.9714028682      Bg        Bg (4)
   77   128           2.4187331942          65.8170762892      Bg        Bg (4)
   78    96           2.4613514640          66.9767783698      Bu        Bu (3)
   79    59           2.4688855628          67.1817916209      Au        Au (2)
   80    27           2.4715959446          67.2555448596      Ag        Ag (1)
   81    28           2.4998335860          68.0239301461      Ag        Ag (1)
   82    29           2.5713667513          69.9704465315      Ag        Ag (1)
   83    97           2.6332260694          71.6537241528      Bu        Bu (3)
   84    98           2.6982633140          73.4234775517      Bu        Bu (3)
   85   129           2.7606534763          75.1212001769      Bg        Bg (4)
   86    60           2.7935170724          76.0154640916      Au        Au (2)
   87    30           2.8309392055          77.0337721017      Ag        Ag (1)
   88    99           2.8487174369          77.5175423748      Bu        Bu (3)
   89   100           3.5790389705          97.3906016306      Bu        Bu (3)
   90    31           3.7008890847         100.7063118043      Ag        Ag (1)
   91   101           3.9879414913         108.5174048968      Bu        Bu (3)
   92   130           4.0167730235         109.3019507726      Bg        Bg (4)
   93    61           4.0679356176         110.6941557384      Au        Au (2)
   94   131           4.0951530265         111.4347790851      Bg        Bg (4)
   95    62           4.1170530025         112.0307077292      Au        Au (2)
   96    32           4.1510855446         112.9567802815      Ag        Ag (1)
   97    33           4.2688056074         116.1601060441      Ag        Ag (1)
   98   132           4.3168379583         117.4671327594      Bg        Bg (4)
   99    63           4.3317432317         117.8727258683      Au        Au (2)
  100   102           4.3636783357         118.7417242262      Bu        Bu (3)
  101    34           4.5764989486         124.5328675196      Ag        Ag (1)
  102    35           4.6335602965         126.0855857344      Ag        Ag (1)
  103   103           4.7021942626         127.9532109020      Bu        Bu (3)
  104   104           4.7163545358         128.3385315248      Bu        Bu (3)
  105    36           5.0970084615         138.6966514385      Ag        Ag (1)
  106   105           5.1750392521         140.8199771980      Bu        Bu (3)
  107   106           5.2243619615         142.1621163560      Bu        Bu (3)
  108   133           5.2691073218         143.3796995095      Bg        Bg (4)
  109    64           5.2784395029         143.6336410682      Au        Au (2)
  110    37           5.3397145329         145.3010194000      Ag        Ag (1)
  111    38           6.1131046701         166.3460349431      Ag        Ag (1)
  112   107           6.2009525522         168.7364973443      Bu        Bu (3)
  113    65           6.4427515987         175.3161839031      Au        Au (2)
  114   134           6.5377631794         177.9015804533      Bg        Bg (4)
  115    39           6.5426250334         178.0338782258      Ag        Ag (1)
  116   108           6.5932966835         179.4127239251      Bu        Bu (3)
  117   135           6.6197025439         180.1312639155      Bg        Bg (4)
  118    40           6.6286680838         180.3752286600      Ag        Ag (1)
  119    66           6.6420289400         180.7387960406      Au        Au (2)
  120   109           6.7663562551         184.1219142772      Bu        Bu (3)
  121    67           6.9733270713         189.7538765110      Au        Au (2)
  122   136           7.0182529767         190.9763725477      Bg        Bg (4)
  123    41           7.0245582137         191.1479467689      Ag        Ag (1)
  124   110           7.0620032187         192.1668771552      Bu        Bu (3)
  125    42           7.1124805123         193.5404341455      Ag        Ag (1)
  126   137           7.1707054451         195.1248151161      Bg        Bg (4)
  127    68           7.1720180476         195.1605328461      Au        Au (2)
  128   111           7.1826704419         195.4503992310      Bu        Bu (3)
  129    69           7.2200040477         196.4662982905      Au        Au (2)
  130   138           7.2208866649         196.4903155252      Bg        Bg (4)
  131   112           7.2219846937         196.5201944083      Bu        Bu (3)
  132    43           7.2573989103         197.4838642360      Ag        Ag (1)
  133   113           7.4420661751         202.5089159779      Bu        Bu (3)
  134    44           7.5899149236         206.5320849584      Ag        Ag (1)
  135   114           7.7022630945         209.5892341111      Bu        Bu (3)
  136    45           7.8352147366         213.2070322184      Ag        Ag (1)
  137    46          13.0078237150         353.9608783079      Ag        Ag (1)
  138   115          13.1409761761         357.5841409772      Bu        Bu (3)


 
  ORBITAL EIGENVALUES ( BETA)  (1H = 27.2113834 eV)

       MO #        E(hartree)               E(eV)           FULLSYM    COMPSYM
       ----   --------------------   --------------------   -------   ---------
    1     1         -20.6132804008        -560.9158761173     E          Ag (1)
    2    70         -20.6132792864        -560.9158457940     E          Bu (3)
    3     2          -1.2567275385         -34.1972948796      Ag        Ag (1)
    4    71          -1.2327711588         -33.5454086452      Bu        Bu (3)
    5     3          -0.6512526548         -17.7214856791      Ag        Ag (1)
    6    72          -0.6509829797         -17.7141474481      Bu        Bu (3)
    7    47          -0.5354233977         -14.5696113552      Au        Au (2)
    8   116          -0.5192694037         -14.1300388322      Bg        Bg (4)
  +++++++++++++++++++++++++++++++++++++++++++++++++++++++++++++++++++++++++++++
    9     4           0.0345808428           0.9409925709      Ag        Ag (1)
   10    73           0.0369621033           1.0057899641      Bu        Bu (3)
   11     5           0.0383569193           1.0437448369      Ag        Ag (1)
   12    74           0.1020605661           2.7772091953      Bu        Bu (3)
   13    75           0.1259404709           3.4270144389      Bu        Bu (3)
   14    48           0.1403411711           3.8188774148      Au        Au (2)
   15     6           0.1566451999           4.2625325919      Ag        Ag (1)
   16     7           0.1833835720           4.9901206869      Ag        Ag (1)
   17     8           0.1920608467           5.2262413348      Ag        Ag (1)
   18   117           0.1941385083           5.2827773821      Bg        Bg (4)
   19    76           0.2384576077           6.4887613889      Bu        Bu (3)
   20    77           0.2651321188           7.2146117369      Bu        Bu (3)
   21   118           0.2699914651           7.3468412716      Bg        Bg (4)
   22     9           0.2846462081           7.7456171012      Ag        Ag (1)
   23    78           0.2876733750           7.8279905016      Bu        Bu (3)
   24    49           0.3147399837           8.5645103682      Au        Au (2)
   25    79           0.3653675267           9.9421558515      Bu        Bu (3)
   26    10           0.4344183014          11.8211229559      Ag        Ag (1)
   27    11           0.4696343159          12.7793994289      Ag        Ag (1)
   28    80           0.4752264195          12.9315683018      Bu        Bu (3)
   29    81           0.6218830800          16.9222989195      Bu        Bu (3)
   30    50           0.6315597997          17.1856158506      Au        Au (2)
   31    12           0.6537393424          17.7891518896      Ag        Ag (1)
   32    13           0.6950830374          18.9141710247      Ag        Ag (1)
   33   119           0.7116886481          19.3660326647      Bg        Bg (4)
   34    51           0.7186549291          19.5555948090      Au        Au (2)
   35    14           0.7563618616          20.5816526056      Ag        Ag (1)
   36    82           0.7664993965          20.8575089543      Bu        Bu (3)
   37   120           0.8191374545          22.2898633309      Bg        Bg (4)
   38    83           0.8394415445          22.8423657080      Bu        Bu (3)
   39    52           0.8795198948          23.9329530645      Au        Au (2)
   40    84           0.8813353508          23.9823541348      Bu        Bu (3)
   41   121           0.9208299318          25.0570563212      Bg        Bg (4)
   42    15           0.9215849430          25.0776012190      Ag        Ag (1)
   43    16           0.9263725454          25.2078785049      Ag        Ag (1)
   44    53           0.9365417584          25.4845968566      Au        Au (2)
   45    17           0.9770532727          26.5869712053      Ag        Ag (1)
   46    85           0.9806580684          26.6850626828      Bu        Bu (3)
   47   122           0.9812810809          26.7020157166      Bg        Bg (4)
   48    86           1.0401021354          28.3026179810      Bu        Bu (3)
   49    18           1.0700177331          29.1166627790      Ag        Ag (1)
   50    87           1.0863712518          29.5616646464      Bu        Bu (3)
   51    19           1.1085841229          30.1661076000      Ag        Ag (1)
   52   123           1.1299124866          30.7464818827      Bg        Bg (4)
   53    88           1.2116121195          32.9696419171      Bu        Bu (3)
   54    54           1.2388496087          33.7108116774      Au        Au (2)
   55    89           1.4620851773          39.7853603237      Bu        Bu (3)
   56   124           1.4945292507          40.6682084430      Bg        Bg (4)
   57    20           1.4951930542          40.6862714545      Ag        Ag (1)
   58    21           1.5227392095          41.4358404469      Ag        Ag (1)
   59    55           1.5298709419          41.6299047522      Au        Au (2)
   60    90           1.6079123873          43.7535204457      Bu        Bu (3)
   61    22           1.7486680346          47.5836763290      Ag        Ag (1)
   62    91           1.7698079883          48.1589237141      Bu        Bu (3)
   63    92           1.9881006147          54.0989680657      Bu        Bu (3)
   64    56           2.0844701836          56.7213173516      Au        Au (2)
   65    23           2.1192126204          57.6667071192      Ag        Ag (1)
   66   125           2.1426618299          58.3047925508      Bg        Bg (4)
   67    24           2.1580215302          58.7227512435      Ag        Ag (1)
   68    57           2.1878801390          59.5352452956      Au        Au (2)
   69    93           2.2094269208          60.1215630351      Bu        Bu (3)
   70    58           2.2556931901          61.3805322287      Au        Au (2)
   71    25           2.2616324336          61.5421472601      Ag        Ag (1)
   72   126           2.2888296659          62.2822215773      Bg        Bg (4)
   73    94           2.3349961174          63.5384745888      Bu        Bu (3)
   74    26           2.3361099457          63.5687833961      Ag        Ag (1)
   75   127           2.3821183826          64.8207366132      Bg        Bg (4)
   76    95           2.3863343377          64.9354585832      Bu        Bu (3)
   77   128           2.4371780333          66.3189858786      Bg        Bg (4)
   78    59           2.4829231162          67.5637728690      Au        Au (2)
   79    27           2.4864654282          67.6601640776      Ag        Ag (1)
   80    96           2.4932288420          67.8442059240      Bu        Bu (3)
   81    28           2.5400355723          69.1178818069      Ag        Ag (1)
   82    29           2.5923068766          70.5402563092      Ag        Ag (1)
   83    97           2.6522730813          72.1720196971      Bu        Bu (3)
   84    98           2.7316089835          74.3308593494      Bu        Bu (3)
   85   129           2.7663802076          75.2770324580      Bg        Bg (4)
   86    60           2.8000126304          76.1922172114      Au        Au (2)
   87    30           2.8735992043          78.1946096855      Ag        Ag (1)
   88    99           2.8809920761          78.3957799549      Bu        Bu (3)
   89   100           3.5865858168          97.5959617572      Bu        Bu (3)
   90    31           3.7054044716         100.8291817298      Ag        Ag (1)
   91   101           3.9899087037         108.5709354685      Bu        Bu (3)
   92   130           4.0194841133         109.3757232766      Bg        Bg (4)
   93    61           4.0714584332         110.7900164227      Au        Au (2)
   94   131           4.1116899998         111.8847730057      Bg        Bg (4)
   95    62           4.1339027114         112.4892116178      Au        Au (2)
   96    32           4.2337082223         115.2050576399      Ag        Ag (1)
   97    33           4.2711634845         116.2242671419      Ag        Ag (1)
   98   132           4.3139716395         117.3891362602      Bg        Bg (4)
   99    63           4.3276846315         117.7622857428      Au        Au (2)
  100   102           4.4425925286         120.8890885851      Bu        Bu (3)
  101    34           4.5964204186         125.0749582787      Ag        Ag (1)
  102    35           4.6501316526         126.5365152596      Ag        Ag (1)
  103   103           4.7189679485         128.4096460978      Bu        Bu (3)
  104   104           4.7285105450         128.6693133519      Bu        Bu (3)
  105    36           5.1185217169         139.2820568806      Ag        Ag (1)
  106   105           5.1947471339         141.3562559267      Bu        Bu (3)
  107   106           5.2680308506         143.3504072389      Bu        Bu (3)
  108   133           5.2759741669         143.5665558641      Bg        Bg (4)
  109    64           5.2861684836         143.8439573230      Au        Au (2)
  110    37           5.3856614270         146.5512979539      Ag        Ag (1)
  111    38           6.1428189382         167.1546012830      Ag        Ag (1)
  112   107           6.2237162412         169.3559288119      Bu        Bu (3)
  113    65           6.4954624938         176.7505202804      Au        Au (2)
  114   134           6.5932491808         179.4114313105      Bg        Bg (4)
  115    39           6.5951161783         179.4622348946      Ag        Ag (1)
  116   108           6.6432602979         180.7723029918      Bu        Bu (3)
  117   135           6.6599768192         181.2271826622      Bg        Bg (4)
  118    40           6.6624111228         181.2934234303      Ag        Ag (1)
  119    66           6.6839266643         181.8788910786      Au        Au (2)
  120   109           6.8103861077         185.3200274792      Bu        Bu (3)
  121    67           7.0642455081         192.2278929528      Au        Au (2)
  122   136           7.1087241650         193.4382187400      Bg        Bg (4)
  123    41           7.1127269016         193.5471387385      Ag        Ag (1)
  124   110           7.1440796249         194.4002897133      Bu        Bu (3)
  125    42           7.1553896099         194.7080500525      Ag        Ag (1)
  126   137           7.1790581255         195.3521031035      Bg        Bg (4)
  127    68           7.1817824017         195.4262344294      Au        Au (2)
  128    69           7.2412509153         197.0444549520      Au        Au (2)
  129   138           7.2422028840         197.0703593361      Bg        Bg (4)
  130   111           7.2557017904         197.4376832554      Bu        Bu (3)
  131   112           7.2782620822         198.0515800054      Bu        Bu (3)
  132    43           7.3375081674         199.6637479437      Ag        Ag (1)
  133   113           7.4710480556         203.2975530404      Bu        Bu (3)
  134    44           7.6139380560         207.1857876251      Ag        Ag (1)
  135   114           7.7342630409         210.4599969223      Bu        Bu (3)
  136    45           7.8706596536         214.1715374449      Ag        Ag (1)
  137    46          13.0401711990         354.8410980963      Ag        Ag (1)
  138   115          13.1734225989         358.4670530276      Bu        Bu (3)


  VSCF finished.

 @CHECKOUT-I, Total execution time (CPU/WALL):        6.22/       6.25 seconds.
--executable xvscf finished with status     0 in        6.28 seconds (walltime).
 --invoking executable--
/apps/eb/cfour/2.1-iompi-2018a-serial/bin/xvtran
 @GETMEM-I,  Allocated   38146 MB of main memory.
  Full UHF integral transformation
  Frozen-core orbitals requested within analytic derivative calculation
  Transformation of IIII integrals :
  2 passes through the AO integral file were required.
     1246094 AO integrals were read.
     1246094 MO integrals (Spin case AAAA) were written to HF2AA.
     1246094 MO integrals (Spin case BBBB) were written to HF2BB.
     2489474 MO integrals (Spin case AABB) were written to HF2AB.
  Transformation of IIJJ integrals :
  2 passes through the AO integral file were required.
     2438161 AO integrals were read.
     2438161 MO integrals (Spin case AAAA) were written to HF2AA.
     2438161 MO integrals (Spin case BBBB) were written to HF2BB.
     4876322 MO integrals (Spin case AABB) were written to HF2AB.
  Transformation of IJIJ integrals :
  2 passes through the AO integral file were required.
     4620815 AO integrals were read.
     4620815 MO integrals (Spin case AAAA) were written to HF2AA.
     4620815 MO integrals (Spin case BBBB) were written to HF2BB.
     9234753 MO integrals (Spin case AABB) were written to HF2AB.
  Transformation of IJKL integrals :
  2 passes through the AO integral file were required.
     3358092 AO integrals were read.
     3358092 MO integrals (Spin case AAAA) were written to HF2AA.
     3358092 MO integrals (Spin case BBBB) were written to HF2BB.
     6716184 MO integrals (Spin case AABB) were written to HF2AB.
  Summary of active molecular orbitals: 
------------------------------------------------------------------------
                         * Spin case alpha *
 
  Index      Eigenvalue    Symmetry    Index      Eigenvalue    Symmetry
------------------------------------------------------------------------
     1       -20.6532819        1        70         6.4427516        2
     2        -1.4148844        1        71         6.6420289        2
     3        -0.7163040        1        72         6.9733271        2
     4        -0.6739080        1        73         7.1720180        2
     5        -0.5826660        2        74         7.2200040        2
     6       -20.6532928        3        75         0.0477274        3
     7        -1.3950724        3        76         0.1237248        3
     8        -0.7029488        3        77         0.1874072        3
     9        -0.6512801        3        78         0.2502555        3
    10        -0.5683272        4        79         0.2799014        3
    11         0.0329829        1        80         0.3619575        3
    12         0.1486089        1        81         0.4586913        3
    13         0.1602001        1        82         0.6205234        3
    14         0.1884764        1        83         0.7446334        3
    15         0.2803962        1        84         0.7991533        3
    16         0.3883499        1        85         0.8720809        3
    17         0.4472769        1        86         0.9559674        3
    18         0.6543596        1        87         1.0294104        3
    19         0.6650789        1        88         1.0775538        3
    20         0.7311033        1        89         1.1797086        3
    21         0.8668230        1        90         1.4216642        3
    22         0.9139760        1        91         1.5771115        3
    23         0.9553157        1        92         1.7503236        3
    24         1.0467966        1        93         1.9622391        3
    25         1.0916338        1        94         2.1532520        3
    26         1.4714020        1        95         2.3067216        3
    27         1.4856171        1        96         2.3449703        3
    28         1.7351929        1        97         2.4613515        3
    29         2.0769880        1        98         2.6332261        3
    30         2.1308234        1        99         2.6982633        3
    31         2.2321566        1       100         2.8487174        3
    32         2.2984589        1       101         3.5790390        3
    33         2.4715959        1       102         3.9879415        3
    34         2.4998336        1       103         4.3636783        3
    35         2.5713668        1       104         4.7021943        3
    36         2.8309392        1       105         4.7163545        3
    37         3.7008891        1       106         5.1750393        3
    38         4.1510855        1       107         5.2243620        3
    39         4.2688056        1       108         6.2009526        3
    40         4.5764989        1       109         6.5932967        3
    41         4.6335603        1       110         6.7663563        3
    42         5.0970085        1       111         7.0620032        3
    43         5.3397145        1       112         7.1826704        3
    44         6.1131047        1       113         7.2219847        3
    45         6.5426250        1       114         7.4420662        3
    46         6.6286681        1       115         7.7022631        3
    47         7.0245582        1       116        13.1409762        3
    48         7.1124805        1       117         0.1927894        4
    49         7.2573989        1       118         0.2691899        4
    50         7.5899149        1       119         0.7102018        4
    51         7.8352147        1       120         0.8044697        4
    52        13.0078237        1       121         0.9120583        4
    53         0.1380042        2       122         0.9760322        4
    54         0.3129722        2       123         1.1256400        4
    55         0.6140878        2       124         1.4951190        4
    56         0.7198997        2       125         2.0898117        4
    57         0.8698818        2       126         2.2771215        4
    58         0.9337495        2       127         2.3509059        4
    59         1.2333841        2       128         2.4187332        4
    60         1.5301600        2       129         2.7606535        4
    61         2.0633923        2       130         4.0167730        4
    62         2.1221199        2       131         4.0951530        4
    63         2.2434609        2       132         4.3168380        4
    64         2.4688856        2       133         5.2691073        4
    65         2.7935171        2       134         6.5377632        4
    66         4.0679356        2       135         6.6197025        4
    67         4.1170530        2       136         7.0182530        4
    68         4.3317432        2       137         7.1707054        4
    69         5.2784395        2       138         7.2208867        4
------------------------------------------------------------------------
------------------------------------------------------------------------
                         * Spin case beta *
 
  Index      Eigenvalue    Symmetry    Index      Eigenvalue    Symmetry
------------------------------------------------------------------------
     1       -20.6132804        1        70         6.6839267        2
     2        -1.2567275        1        71         7.0642455        2
     3        -0.6512527        1        72         7.1817824        2
     4        -0.5354234        2        73         7.2412509        2
     5       -20.6132793        3        74         0.0369621        3
     6        -1.2327712        3        75         0.1020606        3
     7        -0.6509830        3        76         0.1259405        3
     8        -0.5192694        4        77         0.2384576        3
     9         0.0345808        1        78         0.2651321        3
    10         0.0383569        1        79         0.2876734        3
    11         0.1566452        1        80         0.3653675        3
    12         0.1833836        1        81         0.4752264        3
    13         0.1920608        1        82         0.6218831        3
    14         0.2846462        1        83         0.7664994        3
    15         0.4344183        1        84         0.8394415        3
    16         0.4696343        1        85         0.8813354        3
    17         0.6537393        1        86         0.9806581        3
    18         0.6950830        1        87         1.0401021        3
    19         0.7563619        1        88         1.0863713        3
    20         0.9215849        1        89         1.2116121        3
    21         0.9263725        1        90         1.4620852        3
    22         0.9770533        1        91         1.6079124        3
    23         1.0700177        1        92         1.7698080        3
    24         1.1085841        1        93         1.9881006        3
    25         1.4951931        1        94         2.2094269        3
    26         1.5227392        1        95         2.3349961        3
    27         1.7486680        1        96         2.3863343        3
    28         2.1192126        1        97         2.4932288        3
    29         2.1580215        1        98         2.6522731        3
    30         2.2616324        1        99         2.7316090        3
    31         2.3361099        1       100         2.8809921        3
    32         2.4864654        1       101         3.5865858        3
    33         2.5400356        1       102         3.9899087        3
    34         2.5923069        1       103         4.4425925        3
    35         2.8735992        1       104         4.7189679        3
    36         3.7054045        1       105         4.7285105        3
    37         4.2337082        1       106         5.1947471        3
    38         4.2711635        1       107         5.2680309        3
    39         4.5964204        1       108         6.2237162        3
    40         4.6501317        1       109         6.6432603        3
    41         5.1185217        1       110         6.8103861        3
    42         5.3856614        1       111         7.1440796        3
    43         6.1428189        1       112         7.2557018        3
    44         6.5951162        1       113         7.2782621        3
    45         6.6624111        1       114         7.4710481        3
    46         7.1127269        1       115         7.7342630        3
    47         7.1553896        1       116        13.1734226        3
    48         7.3375082        1       117         0.1941385        4
    49         7.6139381        1       118         0.2699915        4
    50         7.8706597        1       119         0.7116886        4
    51        13.0401712        1       120         0.8191375        4
    52         0.1403412        2       121         0.9208299        4
    53         0.3147400        2       122         0.9812811        4
    54         0.6315598        2       123         1.1299125        4
    55         0.7186549        2       124         1.4945293        4
    56         0.8795199        2       125         2.1426618        4
    57         0.9365418        2       126         2.2888297        4
    58         1.2388496        2       127         2.3821184        4
    59         1.5298709        2       128         2.4371780        4
    60         2.0844702        2       129         2.7663802        4
    61         2.1878801        2       130         4.0194841        4
    62         2.2556932        2       131         4.1116900        4
    63         2.4829231        2       132         4.3139716        4
    64         2.8000126        2       133         5.2759742        4
    65         4.0714584        2       134         6.5932492        4
    66         4.1339027        2       135         6.6599768        4
    67         4.3276846        2       136         7.1087242        4
    68         5.2861685        2       137         7.1790581        4
    69         6.4954625        2       138         7.2422029        4
------------------------------------------------------------------------
  -20.6532819434097       -1.41488435755270      -0.716304018894098     
 -0.673908044707865      -0.582666035908084       -20.6532927907637     
  -1.39507238373582      -0.702948770592344      -0.651280112150031     
 -0.568327186158472       3.298288067868322E-002  0.148608937515385     
  0.160200066798360       0.188476393008645       0.280396160798053     
  0.388349916237851       0.447276903793176       0.654359567772866     
  0.665078865353479       0.731103326261504       0.866823008733158     
  0.913975952805198       0.955315679660778        1.04679663564581     
   1.09163378680052        1.47140201516905        1.48561706758011     
   1.73519293223320        2.07698797426313        2.13082335736244     
   2.23215663242404        2.29845887345516        2.47159594464501     
   2.49983358604510        2.57136675129564        2.83093920545532     
   3.70088908468714        4.15108554464281        4.26880560743864     
   4.57649894858445        4.63356029647667        5.09700846148440     
   5.33971453285268        6.11310467012478        6.54262503338284     
   6.62866808381409        7.02455821371221        7.11248051231099     
   7.25739891033856        7.58991492356063        7.83521473657936     
   13.0078237149781       0.138004199303974       0.312972194748685     
  0.614087808811039       0.719899740979328       0.869881833269177     
  0.933749514704214        1.23338405295765        1.53015995245815     
   2.06339229209240        2.12211993791302        2.24346087472576     
   2.46888556283197        2.79351707240417        4.06793561764921     
   4.11705300250197        4.33174323170482        5.27843950294162     
   6.44275159869671        6.64202894001167        6.97332707130902     
   7.17201804764202        7.22000404766422       4.772744663886137E-002
  0.123724774819863       0.187407244065382       0.250255460887938     
  0.279901369001530       0.361957509581602       0.458691347045916     
  0.620523369214670       0.744633406430254       0.799153347407574     
  0.872080939323838       0.955967449059816        1.02941038800935     
   1.07755384439765        1.17970863335808        1.42166415451341     
   1.57711147886353        1.75032357254153        1.96223913798264     
   2.15325197482553        2.30672163448322        2.34497034968380     
   2.46135146402882        2.63322606938237        2.69826331401154     
   2.84871743694025        3.57903897052949        3.98794149131089     
   4.36367833567096        4.70219426264140        4.71635453582836     
   5.17503925206359        5.22436196154458        6.20095255224432     
   6.59329668351614        6.76635625505258        7.06200321866808     
   7.18267044192371        7.22198469366716        7.44206617506703     
   7.70226309446440        13.1409761760663       0.192789372609659     
  0.269189885955101       0.710201778399406       0.804469695576147     
  0.912058342493353       0.976032224749611        1.12563995710009     
   1.49511895017140        2.08981167007144        2.27712152216779     
   2.35090593990958        2.41873319418141        2.76065347625496     
   4.01677302347495        4.09515302647571        4.31683795831498     
   5.26910732181066        6.53776317941039        6.61970254388117     
   7.01825297671907        7.17070544513648        7.22088666485223     
  -20.6132804007801       -1.25672753850620      -0.651252654764671     
 -0.535423397664441       -20.6132792864186       -1.23277115875128     
 -0.650982979722631      -0.519269403707817       3.458084276914467E-002
  3.835691929243300E-002  0.156645199888626       0.183383571997580     
  0.192060846667299       0.284646208073583       0.434418301419566     
  0.469634315940597       0.653739342396125       0.695083037369455     
  0.756361861618341       0.921584942976968       0.926372545429754     
  0.977053272688264        1.07001773305693        1.10858412292443     
   1.49519305418533        1.52273920946155        1.74866803460738     
   2.11921262037718        2.15802153019156        2.26163243358362     
   2.33610994566854        2.48646542820154        2.54003557227915     
   2.59230687658383        2.87359920427576        3.70540447163785     
   4.23370822226922        4.27116348454099        4.59642041861993     
   4.65013165260837        5.11852171693135        5.38566142704559     
   6.14281893815685        6.59511617827527        6.66241112277738     
   7.11272690158331        7.15538960994138        7.33750816739955     
   7.61393805597933        7.87065965359492        13.0401711989501     
  0.140341171144511       0.314739983715846       0.631559799734413     
  0.718654929136223       0.879519894768710       0.936541758351548     
   1.23884960870578        1.52987094188718        2.08447018359232     
   2.18788013899976        2.25569319010476        2.48292311624896     
   2.80001263042891        4.07145843318839        4.13390271138486     
   4.32768463152892        5.28616848355399        6.49546249384897     
   6.68392666425880        7.06424550810496        7.18178240174862     
   7.24125091530728       3.696210329721213E-002  0.102060566140841     
  0.125940470889377       0.238457607740358       0.265132118822873     
  0.287673375018040       0.365367526720253       0.475226419461609     
  0.621883079987019       0.766499396511514       0.839441544452990     
  0.881335350809283       0.980658068374123        1.04010213538218     
   1.08637125175951        1.21161211954632        1.46208517732585     
   1.60791238734664        1.76980798830445        1.98810061474779     
   2.20942692076054        2.33499611742745        2.38633433767978     
   2.49322884201630        2.65227308131304        2.73160898351876     
   2.88099207609371        3.58658581677291        3.98990870374040     
   4.44259252857863        4.71896794845969        4.72851054503505     
   5.19474713390238        5.26803085060715        6.22371624119122     
   6.64326029788642        6.81038610771988        7.14407962490244     
   7.25570179042939        7.27826208223477        7.47104805558639     
   7.73426304089782        13.1734225988536       0.194138508301095     
  0.269991465100073       0.711688648094571       0.819137454470715     
[...]
 CPU time [min]:   360.396                   Wall time [min]:    56.532
 
 Iteration  9  CC energy:  -151.29109191  Energy decrease:   0.00000937
 ======================================================================
 Norm of residual vector:     0.00059742
 CPU time [min]:   402.457                   Wall time [min]:    62.867
 
 Iteration 10  CC energy:  -151.29109079  Energy decrease:   0.00000112
 ======================================================================
 Norm of residual vector:     0.00048543
 CPU time [min]:   444.617                   Wall time [min]:    69.266
 
 Iteration 11  CC energy:  -151.29109270  Energy decrease:   0.00000191
 ======================================================================
 Norm of residual vector:     0.00044649
 CPU time [min]:   487.121                   Wall time [min]:    75.741
 
 Iteration 12  CC energy:  -151.29109210  Energy decrease:   0.00000060
 ======================================================================
 Norm of residual vector:     0.00042558
 CPU time [min]:   529.683                   Wall time [min]:    82.255
 
 Iteration 13  CC energy:  -151.29109170  Energy decrease:   0.00000040
 ======================================================================
 Norm of residual vector:     0.00041245
 CPU time [min]:   572.456                   Wall time [min]:    88.855
 
 Iteration 14  CC energy:  -151.29109274  Energy decrease:   0.00000104
 ======================================================================
 Norm of residual vector:     0.00040123
 CPU time [min]:   615.610                   Wall time [min]:    95.542
 
 Iteration 15  CC energy:  -151.29109386  Energy decrease:   0.00000112
 ======================================================================
 Norm of residual vector:     0.00038543
 CPU time [min]:   658.924                   Wall time [min]:   102.286
 
 Iteration 16  CC energy:  -151.29109399  Energy decrease:   0.00000013
 ======================================================================
 Norm of residual vector:     0.00035807
 CPU time [min]:   702.775                   Wall time [min]:   109.113
 
 Iteration 17  CC energy:  -151.29109597  Energy decrease:   0.00000198
 ======================================================================
 Norm of residual vector:     0.00030098
 CPU time [min]:   746.534                   Wall time [min]:   115.991
 
 Iteration 18  CC energy:  -151.29110225  Energy decrease:   0.00000628
 ======================================================================
 Norm of residual vector:     0.00020565
 CPU time [min]:   790.640                   Wall time [min]:   122.938
 
 Iteration 19  CC energy:  -151.29110419  Energy decrease:   0.00000194
 ======================================================================
 Norm of residual vector:     0.00011713
 CPU time [min]:   835.344                   Wall time [min]:   130.009
 
 Iteration 20  CC energy:  -151.29110377  Energy decrease:   0.00000042
 ======================================================================
 Norm of residual vector:     0.00005916
 CPU time [min]:   880.279                   Wall time [min]:   137.136
 
 Iteration 21  CC energy:  -151.29110467  Energy decrease:   0.00000090
 ======================================================================
 Norm of residual vector:     0.00003091
 CPU time [min]:   925.572                   Wall time [min]:   144.330
 
 Iteration 22  CC energy:  -151.29110529  Energy decrease:   0.00000061
 ======================================================================
 Norm of residual vector:     0.00001713
 CPU time [min]:   970.910                   Wall time [min]:   151.593
 
 Iteration 23  CC energy:  -151.29110525  Energy decrease:   0.00000004
 ======================================================================
 Norm of residual vector:     0.00001038
 CPU time [min]:  1016.905                   Wall time [min]:   158.986
 
 Iteration 24  CC energy:  -151.29110510  Energy decrease:   0.00000015
 ======================================================================
 Norm of residual vector:     0.00000621
 CPU time [min]:  1063.081                   Wall time [min]:   166.438
 
 Iteration 25  CC energy:  -151.29110511  Energy decrease:   0.00000001
 ======================================================================
 Norm of residual vector:     0.00000332
 CPU time [min]:  1109.485                   Wall time [min]:   173.976
 
 Iteration 26  CC energy:  -151.29110517  Energy decrease:   0.00000006
 ======================================================================
 Norm of residual vector:     0.00000178
 CPU time [min]:  1156.422                   Wall time [min]:   181.620
 
 Iteration 27  CC energy:  -151.29110516  Energy decrease:   0.00000001
 ======================================================================
 Norm of residual vector:     0.00000097
 CPU time [min]:  1203.583                   Wall time [min]:   189.347
 
 Iteration 28  CC energy:  -151.29110514  Energy decrease:   0.00000002
 ======================================================================
 Norm of residual vector:     0.00000055
 CPU time [min]:  1250.939                   Wall time [min]:   197.162
 
 Iteration 29  CC energy:  -151.29110514  Energy decrease:   2.0040E-09
 ======================================================================
 Norm of residual vector:     0.00000030
 CPU time [min]:  1298.853                   Wall time [min]:   205.029
 
 Iteration 30  CC energy:  -151.29110515  Energy decrease:   0.00000001
 ======================================================================
 Norm of residual vector:     0.00000015
 CPU time [min]:  1346.452                   Wall time [min]:   212.956
 
 Iteration 31  CC energy:  -151.29110515  Energy decrease:   4.9397E-10
 ======================================================================
 Norm of residual vector:     0.00000008
 CPU time [min]:  1394.638                   Wall time [min]:   221.123
 
 Iteration 32  CC energy:  -151.29110515  Energy decrease:   1.9483E-09
 ======================================================================
 Norm of residual vector:     0.00000004
 CPU time [min]:  1443.530                   Wall time [min]:   229.254
 
 Iteration 33  CC energy:  -151.29110515  Energy decrease:   1.2159E-10
 ======================================================================
 Norm of residual vector:     0.00000002
 CPU time [min]:  1492.992                   Wall time [min]:   237.668
 
 Iteration 34  CC energy:  -151.29110515  Energy decrease:   5.1224E-10
 ======================================================================
 Norm of residual vector:     0.00000001
 CPU time [min]:  1542.964                   Wall time [min]:   246.254
 
 Iteration 35  CC energy:  -151.29110515  Energy decrease:   2.0520E-11
 ======================================================================
 Norm of residual vector:     4.6543E-09
 CPU time [min]:  1593.191                   Wall time [min]:   254.875
 
 Iteration 36  CC energy:  -151.29110515  Energy decrease:   1.1326E-10
 ======================================================================
 Norm of residual vector:     2.5689E-09
 CPU time [min]:  1642.902                   Wall time [min]:   263.518
 
 Iteration 37  CC energy:  -151.29110515  Energy decrease:   1.4722E-11
 ======================================================================
 Norm of residual vector:     1.4376E-09
 CPU time [min]:  1693.545                   Wall time [min]:   272.292
 
 Iteration 38  CC energy:  -151.29110515  Energy decrease:   2.9416E-11
 ======================================================================
 Norm of residual vector:     7.8506E-10
 CPU time [min]:  1744.319                   Wall time [min]:   281.150
 
 Iteration 39  CC energy:  -151.29110515  Energy decrease:   3.8369E-12
 ======================================================================
 Norm of residual vector:     4.0319E-10
 CPU time [min]:  1795.537                   Wall time [min]:   290.056
 
 Iteration 40  CC energy:  -151.29110515  Energy decrease:   8.3276E-12
 ======================================================================
 Norm of residual vector:     2.0251E-10
 CPU time [min]:  1846.899                   Wall time [min]:   299.049
 
 Iteration 41  CC energy:  -151.29110515  Energy decrease:   9.6634E-13
 ======================================================================
 Norm of residual vector:     9.9405E-11
 CPU time [min]:  1898.800                   Wall time [min]:   308.139
 
 Iteration 42  CC energy:  -151.29110515  Energy decrease:   2.2169E-12
 ======================================================================
 Norm of residual vector:     4.7391E-11
 CPU time [min]:  1951.034                   Wall time [min]:   317.313
 
 Iteration 43  CC energy:  -151.29110515  Energy decrease:   2.5580E-13
 ======================================================================
 Norm of residual vector:     2.3904E-11
 CPU time [min]:  2002.954                   Wall time [min]:   326.541
 
 Iteration 44  CC energy:  -151.29110515  Energy decrease:   5.1159E-13
 ======================================================================
 Norm of residual vector:     1.2464E-11
 CPU time [min]:  2055.973                   Wall time [min]:   335.893
 
 Iteration 45  CC energy:  -151.29110515  Energy decrease:   8.5265E-14
 ======================================================================
 Norm of residual vector:     6.7329E-12
 CPU time [min]:  2108.907                   Wall time [min]:   345.294
 
 Iteration 46  CC energy:  -151.29110515  Energy decrease:   8.5265E-14
 ======================================================================
 Norm of residual vector:     3.4781E-12
 CPU time [min]:  2162.346                   Wall time [min]:   354.794
 
 Iteration 47  CC energy:  -151.29110515  Energy decrease:   5.6843E-14
 ======================================================================
 Norm of residual vector:     1.7294E-12
 CPU time [min]:  2215.853                   Wall time [min]:   364.338
 
 Iteration 48  CC energy:  -151.29110515  Energy decrease:   2.8422E-14
 ======================================================================
 Norm of residual vector:     8.2813E-13
 CPU time [min]:  2254.672                   Wall time [min]:   369.915
 
 Iteration 49  CC energy:  -151.29110515  Energy decrease:   0.0000E+00
 ======================================================================
 
 Iteration has converged in 49 steps.
 
 Final results:
 Total CCSDT energy [au]:           -151.291105149319
 Total MP2 energy [au]:             -151.251474294422
 
 
 
 Starting left-hand LR-CC iteration for root                      1 ...
 ======================================================================
 Norm of residual vector:     1.60741909
 CPU time [min]:  2305.867                   Wall time [min]:   378.639
 
 Iteration  1  CI energy:  -151.29110515  Energy decrease:   0.0000E+00
 ======================================================================
 Norm of residual vector:     0.43950796
 CPU time [min]:  2356.541                   Wall time [min]:   387.293
 
 Iteration  2  CI energy:  -151.29110515  Energy decrease:   0.0000E+00
 ======================================================================
 Norm of residual vector:     0.11476916
 CPU time [min]:  2411.532                   Wall time [min]:   396.407
 
 Iteration  3  CI energy:  -151.29110515  Energy decrease:   0.0000E+00
 ======================================================================
 Norm of residual vector:     0.04293365
 CPU time [min]:  2467.140                   Wall time [min]:   405.598
 
 Iteration  4  CI energy:  -151.29110515  Energy decrease:   0.0000E+00
 ======================================================================
 Norm of residual vector:     0.01956889
 CPU time [min]:  2523.319                   Wall time [min]:   414.875
 
 Iteration  5  CI energy:  -151.29110515  Energy decrease:   0.0000E+00
 ======================================================================
 Norm of residual vector:     0.01039024
 CPU time [min]:  2579.439                   Wall time [min]:   424.179
 
 Iteration  6  CI energy:  -151.29110515  Energy decrease:   0.0000E+00
 ======================================================================
 Norm of residual vector:     0.00430622
 CPU time [min]:  2636.094                   Wall time [min]:   433.602
 
 Iteration  7  CI energy:  -151.29110515  Energy decrease:   0.0000E+00
 ======================================================================
 Norm of residual vector:     0.00219988
 CPU time [min]:  2693.230                   Wall time [min]:   443.101
 
 Iteration  8  CI energy:  -151.29110515  Energy decrease:   0.0000E+00
 ======================================================================
 Norm of residual vector:     0.00112544
 CPU time [min]:  2750.466                   Wall time [min]:   452.665
 
 Iteration  9  CI energy:  -151.29110515  Energy decrease:   0.0000E+00
 ======================================================================
 Norm of residual vector:     0.00074977
 CPU time [min]:  2807.868                   Wall time [min]:   462.303
 
 Iteration 10  CI energy:  -151.29110515  Energy decrease:   0.0000E+00
 ======================================================================
 Norm of residual vector:     0.00057579
 CPU time [min]:  2865.594                   Wall time [min]:   471.983
 
 Iteration 11  CI energy:  -151.29110515  Energy decrease:   0.0000E+00
 ======================================================================
 Norm of residual vector:     0.00055442
 CPU time [min]:  2923.869                   Wall time [min]:   481.776
 
 Iteration 12  CI energy:  -151.29110515  Energy decrease:   0.0000E+00
 ======================================================================
 Norm of residual vector:     0.00052035
 CPU time [min]:  2982.157                   Wall time [min]:   491.641
 
 Iteration 13  CI energy:  -151.29110515  Energy decrease:   0.0000E+00
 ======================================================================
 Norm of residual vector:     0.00050574
 CPU time [min]:  3040.742                   Wall time [min]:   501.565
 
 Iteration 14  CI energy:  -151.29110515  Energy decrease:   0.0000E+00
 ======================================================================
 Norm of residual vector:     0.00046392
 CPU time [min]:  3099.416                   Wall time [min]:   511.542
 
 Iteration 15  CI energy:  -151.29110515  Energy decrease:   0.0000E+00
 ======================================================================
 Norm of residual vector:     0.00038221
 CPU time [min]:  3158.431                   Wall time [min]:   521.581
 
 Iteration 16  CI energy:  -151.29110515  Energy decrease:   0.0000E+00
 ======================================================================
 Norm of residual vector:     0.00025569
 CPU time [min]:  3218.197                   Wall time [min]:   531.741
 
 Iteration 17  CI energy:  -151.29110515  Energy decrease:   0.0000E+00
 ======================================================================
 Norm of residual vector:     0.00015852
 CPU time [min]:  3277.950                   Wall time [min]:   541.956
 
 Iteration 18  CI energy:  -151.29110515  Energy decrease:   0.0000E+00
 ======================================================================
 Norm of residual vector:     0.00008965
 CPU time [min]:  3338.267                   Wall time [min]:   552.250
 
 Iteration 19  CI energy:  -151.29110515  Energy decrease:   0.0000E+00
 ======================================================================
 Norm of residual vector:     0.00004973
 CPU time [min]:  3398.886                   Wall time [min]:   562.636
 
 Iteration 20  CI energy:  -151.29110515  Energy decrease:   0.0000E+00
 ======================================================================
 Norm of residual vector:     0.00002612
 CPU time [min]:  3459.766                   Wall time [min]:   573.120
 
 Iteration 21  CI energy:  -151.29110515  Energy decrease:   0.0000E+00
 ======================================================================
 Norm of residual vector:     0.00001422
 CPU time [min]:  3521.105                   Wall time [min]:   583.709
 
 Iteration 22  CI energy:  -151.29110515  Energy decrease:   0.0000E+00
 ======================================================================
 Norm of residual vector:     0.00000735
 CPU time [min]:  3582.428                   Wall time [min]:   594.385
 
 Iteration 23  CI energy:  -151.29110515  Energy decrease:   0.0000E+00
 ======================================================================
 Norm of residual vector:     0.00000382
 CPU time [min]:  3644.416                   Wall time [min]:   605.119
 
 Iteration 24  CI energy:  -151.29110515  Energy decrease:   0.0000E+00
 ======================================================================
 Norm of residual vector:     0.00000202
 CPU time [min]:  3706.398                   Wall time [min]:   615.898
 
 Iteration 25  CI energy:  -151.29110515  Energy decrease:   0.0000E+00
 ======================================================================
 Norm of residual vector:     0.00000110
 CPU time [min]:  3768.940                   Wall time [min]:   626.816
 
 Iteration 26  CI energy:  -151.29110515  Energy decrease:   0.0000E+00
 ======================================================================
 Norm of residual vector:     0.00000060
 CPU time [min]:  3831.807                   Wall time [min]:   637.888
 
 Iteration 27  CI energy:  -151.29110515  Energy decrease:   0.0000E+00
 ======================================================================
 Norm of residual vector:     0.00000029
 CPU time [min]:  3895.093                   Wall time [min]:   648.996
 
 Iteration 28  CI energy:  -151.29110515  Energy decrease:   0.0000E+00
 ======================================================================
 Norm of residual vector:     0.00000013
 CPU time [min]:  3958.611                   Wall time [min]:   660.217
 
 Iteration 29  CI energy:  -151.29110515  Energy decrease:   0.0000E+00
 ======================================================================
 Norm of residual vector:     0.00000006
 CPU time [min]:  4022.318                   Wall time [min]:   671.524
 
 Iteration 30  CI energy:  -151.29110515  Energy decrease:   0.0000E+00
 ======================================================================
 Norm of residual vector:     0.00000003
 CPU time [min]:  4086.386                   Wall time [min]:   682.943
 
 Iteration 31  CI energy:  -151.29110515  Energy decrease:   0.0000E+00
 ======================================================================
 Norm of residual vector:     0.00000001
 CPU time [min]:  4150.330                   Wall time [min]:   694.387
 
 Iteration 32  CI energy:  -151.29110515  Energy decrease:   0.0000E+00
 ======================================================================
 Norm of residual vector:     0.00000001
 CPU time [min]:  4214.912                   Wall time [min]:   705.952
 
 Iteration 33  CI energy:  -151.29110515  Energy decrease:   0.0000E+00
 ======================================================================
 Norm of residual vector:     3.4990E-09
 CPU time [min]:  4280.176                   Wall time [min]:   717.716
 
 Iteration 34  CI energy:  -151.29110515  Energy decrease:   0.0000E+00
 ======================================================================
 Norm of residual vector:     1.8158E-09
 CPU time [min]:  4346.431                   Wall time [min]:   729.649
 
 Iteration 35  CI energy:  -151.29110515  Energy decrease:   0.0000E+00
 ======================================================================
