
Host: ss-sub1.gacrc.uga.edu

Timers On : Tue Mar  9 14:23:38 2021
Timers Off: Tue Mar  9 15:57:29 2021

Wall Time:     5631.35 seconds

                                                       Time (seconds)
Module                                       User      System        Wall        Calls

--------------------------------------------------------------------------------------

**************************************************************************************
