
    -----------------------------------------------------------------------
          Psi4: An Open-Source Ab Initio Electronic Structure Package
                               Psi4 1.4a2.dev191 

                         Git: Rev {master} 0ab5346 


    R. M. Parrish, L. A. Burns, D. G. A. Smith, A. C. Simmonett,
    A. E. DePrince III, E. G. Hohenstein, U. Bozkaya, A. Yu. Sokolov,
    R. Di Remigio, R. M. Richard, J. F. Gonthier, A. M. James,
    H. R. McAlexander, A. Kumar, M. Saitow, X. Wang, B. P. Pritchard,
    P. Verma, H. F. Schaefer III, K. Patkowski, R. A. King, E. F. Valeev,
    F. A. Evangelista, J. M. Turney, T. D. Crawford, and C. D. Sherrill,
    J. Chem. Theory Comput. 13(7) pp 3185--3197 (2017).
    (doi: 10.1021/acs.jctc.7b00174)


                         Additional Contributions by
    P. Kraus, H. Kruse, M. H. Lechner, M. C. Schieber, R. A. Shaw,
    A. Alenaizan, R. Galvelis, Z. L. Glick, S. Lehtola, and J. P. Misiewicz

    -----------------------------------------------------------------------


    Psi4 started on: Tuesday, 23 February 2021 01:26PM

    Process ID: 66576
    Host:       c4-9.compute.lan
    PSIDATADIR: /apps/gb/PSI4/1.4.0/share/psi4
    Memory:     500.0 MiB
    Threads:    1
    
  ==> Input File <==

--------------------------------------------------------------------------
memory 10 GB
molecule {
0 2
O
H 1 R1
R1 = 0.9478992047
}
set {
basis aug-cc-pvqz
e_convergence 10
g_convergence gau_verytight
reference uhf
scf_type pk
mp2_type conv
}

optimize("mp2")

--------------------------------------------------------------------------

  Memory set to   9.313 GiB by Python driver.
gradient() will perform analytic gradient computation.

*** tstart() called on c4-9.compute.lan
*** at Tue Feb 23 13:26:03 2021

   => Loading Basis Set <=

    Name: AUG-CC-PVQZ
    Role: ORBITAL
    Keyword: BASIS
    atoms 1 entry O          line   423 file /apps/gb/PSI4/1.4.0/share/psi4/basis/aug-cc-pvqz.gbs 
    atoms 2 entry H          line    40 file /apps/gb/PSI4/1.4.0/share/psi4/basis/aug-cc-pvqz.gbs 


         ---------------------------------------------------------
                                   SCF
               by Justin Turney, Rob Parrish, Andy Simmonett
                          and Daniel G. A. Smith
                              UHF Reference
                        1 Threads,   9536 MiB Core
         ---------------------------------------------------------

  ==> Geometry <==

    Molecular point group: c2v
    Full point group: C_inf_v

    Geometry (in Angstrom), charge = 0, multiplicity = 2:

       Center              X                  Y                   Z               Mass       
    ------------   -----------------  -----------------  -----------------  -----------------
         O            0.000000000000     0.000000000000    -0.056186036256    15.994914619570
         H            0.000000000000     0.000000000000     0.891713168444     1.007825032230

  Running in c2v symmetry.

  Rotational constants: A = ************  B =     19.78901  C =     19.78901 [cm^-1]
  Rotational constants: A = ************  B = 593259.52428  C = 593259.52428 [MHz]
  Nuclear repulsion =    4.466105324668810

  Charge       = 0
  Multiplicity = 2
  Electrons    = 9
  Nalpha       = 5
  Nbeta        = 4

  ==> Algorithm <==

  SCF Algorithm Type is PK.
  DIIS enabled.
  MOM disabled.
  Fractional occupation disabled.
  Guess Type is SAD.
  Energy threshold   = 1.00e-10
  Density threshold  = 1.00e-10
  Integral threshold = 0.00e+00

  ==> Primary Basis <==

  Basis Set: AUG-CC-PVQZ
    Blend: AUG-CC-PVQZ
    Number of shells: 34
    Number of basis function: 126
    Number of Cartesian functions: 160
    Spherical Harmonics?: true
    Max angular momentum: 4

  ==> Pre-Iterations <==

   -------------------------------------------------------
    Irrep   Nso     Nmo     Nalpha   Nbeta   Ndocc  Nsocc
   -------------------------------------------------------
     A1        50      50       0       0       0       0
     A2        16      16       0       0       0       0
     B1        30      30       0       0       0       0
     B2        30      30       0       0       0       0
   -------------------------------------------------------
    Total     126     126       5       4       4       1
   -------------------------------------------------------

  ==> Integral Setup <==

  Using in-core PK algorithm.
   Calculation information:
      Number of atoms:                   2
      Number of AO shells:              34
      Number of primitives:             54
      Number of atomic orbitals:       160
      Number of basis functions:       126

      Integral cutoff                 1.00e-12
      Number of threads:                 1

  Performing in-core PK
  Using 64024002 doubles for integral storage.
  We computed 177310 shell quartets total.
  Whereas there are 177310 unique shell quartets.

  ==> DiskJK: Disk-Based J/K Matrices <==

    J tasked:                  Yes
    K tasked:                  Yes
    wK tasked:                  No
    Memory [MiB]:             7152
    Schwarz Cutoff:          1E-12

    OpenMP threads:              1

  Minimum eigenvalue in the overlap matrix is 1.2724388167E-04.
  Using Symmetric Orthogonalization.

  SCF Guess: Superposition of Atomic Densities via on-the-fly atomic UHF.

  ==> Iterations <==

                        Total Energy        Delta E     RMS |[F,P]|

   @UHF iter SAD:   -74.66621320405164   -7.46662e+01   0.00000e+00 
   @UHF iter   1:   -75.40333480176004   -7.37122e-01   3.48697e-03 DIIS
   @UHF iter   2:   -75.42372678460472   -2.03920e-02   1.33559e-03 DIIS
   @UHF iter   3:   -75.42647102596382   -2.74424e-03   3.90472e-04 DIIS
   @UHF iter   4:   -75.42691108668504   -4.40061e-04   1.18804e-04 DIIS
   @UHF iter   5:   -75.42698239886985   -7.13122e-05   5.24029e-05 DIIS
   @UHF iter   6:   -75.42700154257503   -1.91437e-05   1.84804e-05 DIIS
   @UHF iter   7:   -75.42700445875062   -2.91618e-06   6.09468e-06 DIIS
   @UHF iter   8:   -75.42700478739414   -3.28644e-07   1.30136e-06 DIIS
   @UHF iter   9:   -75.42700479836159   -1.09675e-08   4.28126e-07 DIIS
   @UHF iter  10:   -75.42700479966777   -1.30618e-09   6.87350e-08 DIIS
   @UHF iter  11:   -75.42700479969858   -3.08091e-11   8.52509e-09 DIIS
   @UHF iter  12:   -75.42700479969901   -4.26326e-13   1.94908e-09 DIIS
   @UHF iter  13:   -75.42700479969898    2.84217e-14   4.48391e-10 DIIS
   @UHF iter  14:   -75.42700479969901   -2.84217e-14   1.00531e-10 DIIS
   @UHF iter  15:   -75.42700479969898    2.84217e-14   1.69197e-11 DIIS
  Energy and wave function converged.


  ==> Post-Iterations <==

   @Spin Contamination Metric:   6.872842400E-03
   @S^2 Expected:                7.500000000E-01
   @S^2 Observed:                7.568728424E-01
   @S   Expected:                5.000000000E-01
   @S   Observed:                5.000000000E-01

    Orbital Energies [Eh]
    ---------------------

    Alpha Occupied:                                                       

       1A1   -20.636824     2A1    -1.395876     3A1    -0.689165  
       1B2    -0.659742     1B1    -0.562702  

    Alpha Virtual:                                                        

       4A1     0.027743     5A1     0.113607     2B2     0.129851  
       2B1     0.137166     6A1     0.162122     3B2     0.213549  
       3B1     0.218178     7A1     0.220543     8A1     0.351869  
       9A1     0.471841     1A2     0.473100    10A1     0.508274  
       4B2     0.546072     4B1     0.556621     5B2     0.619636  
       5B1     0.636078    11A1     0.648189     2A2     0.679270  
      12A1     0.679995    13A1     0.708101     6B2     0.735388  
       6B1     0.757554    14A1     0.788961     7B2     1.154372  
       7B1     1.173446    15A1     1.224975     8B2     1.322720  
       8B1     1.322731    16A1     1.473537     3A2     1.475355  
      17A1     1.493243     9B2     1.533126     9B1     1.553467  
      18A1     1.577563     4A2     1.577877    19A1     1.628932  
      20A1     1.648095    10B2     1.683728    10B1     1.699918  
      11B2     1.725092    11B1     1.725366     5A2     1.857224  
      21A1     1.857369    22A1     1.880960    12B2     2.086939  
      12B1     2.112328    23A1     2.441315    13B2     2.606564  
      13B1     2.653222    14B2     2.968436    14B1     2.987087  
      24A1     2.994963     6A2     2.994999    25A1     3.049910  
      26A1     3.601002     7A2     3.647911    27A1     3.647911  
      15B2     3.751780    15B1     3.794931    16B2     3.913948  
      16B1     3.914172    28A1     3.996768    17B2     4.076607  
      17B1     4.077036     8A2     4.133221    18B2     4.135411  
      29A1     4.136431    18B1     4.173113    30A1     4.195059  
       9A2     4.262590    31A1     4.265168    32A1     4.415919  
      19B2     4.759506    19B1     4.800923    10A2     4.818700  
      33A1     4.819243    34A1     5.141688    20B2     5.599498  
      20B1     5.639775    35A1     5.909311    21B2     6.704679  
      21B1     6.704680    22B2     7.733840    22B1     7.747451  
      36A1     7.823528    11A2     7.824527    37A1     7.904687  
      38A1     8.541977    12A2     8.542106    39A1     8.604867  
      23B2     8.673856    23B1     8.690071    40A1     9.828245  
      24B2     9.901601    24B1     9.928876    41A1    10.518159  
      13A2    10.592783    42A1    10.592783    25B2    10.749516  
      25B1    10.749889    26B2    10.812442    26B1    10.883882  
      43A1    11.216528    14A2    11.217256    27B2    11.499789  
      27B1    11.553427    44A1    11.601546    28B2    11.835468  
      28B1    11.835610    15A2    12.002766    45A1    12.003092  
      46A1    12.336278    29B2    12.790967    16A2    12.807244  
      47A1    12.807675    29B1    12.844398    48A1    14.513258  
      30B2    14.666082    30B1    14.716717    49A1    16.973543  
      50A1    43.126606  

    Beta Occupied:                                                        

       1A1   -20.597206     2A1    -1.238902     3A1    -0.644853  
       1B1    -0.514881  

    Beta Virtual:                                                         

       4A1     0.028730     1B2     0.060086     5A1     0.115239  
       2B1     0.138737     6A1     0.165141     2B2     0.177241  
       3B1     0.218250     7A1     0.223419     3B2     0.232658  
       8A1     0.359391     1A2     0.481284     9A1     0.481426  
      10A1     0.510299     4B1     0.555083     4B2     0.555738  
       5B1     0.639827    11A1     0.648756     5B2     0.657893  
       2A2     0.679977    12A1     0.680398    13A1     0.719464  
       6B1     0.763617    14A1     0.799016     6B2     0.803102  
       7B1     1.173738     7B2     1.183924    15A1     1.242420  
       8B1     1.330445     8B2     1.330453    16A1     1.498706  
       3A2     1.519746    17A1     1.521195     9B2     1.546758  
       9B1     1.553209     4A2     1.587210    18A1     1.587834  
      19A1     1.637024    20A1     1.651958    10B1     1.702611  
      10B2     1.706497    11B1     1.726644    11B2     1.726687  
      21A1     1.863225     5A2     1.863586    22A1     1.890715  
      12B1     2.116404    12B2     2.122046    23A1     2.448431  
      13B1     2.666818    13B2     2.695604    14B2     2.980781  
      14B1     2.985848    24A1     3.003587     6A2     3.003626  
      25A1     3.057361    26A1     3.617274     7A2     3.661439  
      27A1     3.661440    15B2     3.803874    15B1     3.805444  
      16B2     3.930298    16B1     3.930303    28A1     4.018526  
      17B2     4.107319    17B1     4.107328     8A2     4.150810  
      29A1     4.151380    18B2     4.166678    18B1     4.176743  
      30A1     4.232410     9A2     4.331865    31A1     4.332446  
      32A1     4.423376    19B2     4.803962    19B1     4.809397  
      10A2     4.849315    33A1     4.849485    34A1     5.155802  
      20B2     5.639659    20B1     5.647450    35A1     5.929579  
      21B2     6.706232    21B1     6.706232    22B2     7.738841  
      22B1     7.746389    36A1     7.829223    11A2     7.829999  
      37A1     7.909187    38A1     8.542849    12A2     8.543043  
      39A1     8.612281    23B2     8.678638    23B1     8.689176  
      40A1     9.837085    24B2     9.921394    24B1     9.932424  
      41A1    10.528894    13A2    10.628230    42A1    10.628230  
      25B2    10.778015    25B1    10.778019    26B2    10.903276  
      26B1    10.903688    43A1    11.238311    14A2    11.238622  
      27B2    11.535075    27B1    11.561524    44A1    11.625513  
      28B2    11.892335    28B1    11.892340    15A2    12.044695  
      45A1    12.044719    46A1    12.354998    29B2    12.839014  
      29B1    12.856942    16A2    12.873831    47A1    12.873888  
      48A1    14.528368    30B2    14.711070    30B1    14.727911  
      49A1    16.986578    50A1    43.150488  

    Final Occupation by Irrep:
             A1    A2    B1    B2 
    DOCC [     3,    0,    1,    0 ]
    SOCC [     0,    0,    0,    1 ]

  @UHF Final Energy:   -75.42700479969898

   => Energetics <=

    Nuclear Repulsion Energy =              4.4661053246688098
    One-Electron Energy =                -112.8460692167537047
    Two-Electron Energy =                  32.9529590923859104
    Total Energy =                        -75.4270047996989916

  UHF NO Occupations:
  HONO-2 :    2 A1 1.9992954
  HONO-1 :    3 A1 1.9978837
  HONO-0 :    1 B2 1.0000000
  LUNO+0 :    4 A1 0.0021163
  LUNO+1 :    5 A1 0.0007046
  LUNO+2 :    2 B1 0.0006170
  LUNO+3 :    6 A1 0.0000012


Computation Completed


Properties will be evaluated at   0.000000,   0.000000,   0.000000 [a0]

Properties computed using the SCF density matrix

  Nuclear Dipole Moment: [e a0]
     X:     0.0000      Y:     0.0000      Z:     0.8357

  Electronic Dipole Moment: [e a0]
     X:     0.0000      Y:     0.0000      Z:    -0.1511

  Dipole Moment: [e a0]
     X:     0.0000      Y:     0.0000      Z:     0.6846     Total:     0.6846

  Dipole Moment: [D]
     X:     0.0000      Y:     0.0000      Z:     1.7401     Total:     1.7401


*** tstop() called on c4-9.compute.lan at Tue Feb 23 13:26:08 2021
Module time:
	user time   =       4.93 seconds =       0.08 minutes
	system time =       0.16 seconds =       0.00 minutes
	total time  =          5 seconds =       0.08 minutes
Total time:
	user time   =       4.93 seconds =       0.08 minutes
	system time =       0.16 seconds =       0.00 minutes
	total time  =          5 seconds =       0.08 minutes
 MINTS: Wrapper to libmints.
   by Justin Turney

   Calculation information:
      Number of threads:                 1
      Number of atoms:                   2
      Number of AO shells:              34
      Number of SO shells:              34
      Number of primitives:             54
      Number of atomic orbitals:       160
      Number of basis functions:       126

      Number of irreps:                  4
      Integral cutoff                 0.00e+00
      Number of functions per irrep: [  50   16   30   30 ]

 OEINTS: Overlap, kinetic, potential, dipole, and quadrupole integrals
         stored in file 35.

      Computing two-electron integrals...done
      Computed 7374138 non-zero two-electron integrals.
        Stored in file 33.


*** tstart() called on c4-9.compute.lan
*** at Tue Feb 23 13:26:10 2021


 ============================================================================== 
 ============================================================================== 
 ============================================================================== 

                       MP2   
              Program Written by Ugur Bozkaya,
              Latest Revision June 25, 2014.

 ============================================================================== 
 ============================================================================== 
 ============================================================================== 

	RMS orbital gradient is changed to :     1.00e-07
	MAX orbital gradient is changed to :     1.00e-04
	MO spaces per irreps... 

	IRREP   FC   AOCC  BOCC  AVIR    BVIR  FV 
	==========================================
	  A1     0     3     3    47     47     0
	  A2     0     0     0    16     16     0
	  B1     0     1     1    29     29     0
	  B2     0     1     0    29     30     0
	==========================================

	Computing MP2 energy using SCF MOs (Canonical MP2)... 
	============================================================================== 
	Nuclear Repulsion Energy (a.u.)    :     4.46610532466881
	SCF Energy (a.u.)                  :   -75.42700479969898
	REF Energy (a.u.)                  :   -75.42700479969898
	Alpha-Alpha Contribution (a.u.)    :    -0.03693790068386
	Alpha-Beta Contribution (a.u.)     :    -0.19452992865861
	Beta-Beta Contribution (a.u.)      :    -0.01775832559779
	Scaled_SS Correlation Energy (a.u.):    -0.01823207542722
	Scaled_OS Correlation Energy (a.u.):    -0.23343591439034
	SCS-MP2 Total Energy (a.u.)        :   -75.67867278951653
	SOS-MP2 Total Energy (a.u.)        :   -75.42700479969898
	SCSN-MP2 Total Energy (a.u.)       :   -75.52327015795468
	SCS-MP2-VDW Total Energy (a.u.)    :   -75.70335122152282
	SOS-PI-MP2 Total Energy (a.u.)     :   -75.69934669982104
	MP2 Correlation Energy (a.u.)      :    -0.24922615494026
	MP2 Total Energy (a.u.)            :   -75.67623095463924
	============================================================================== 
	Analytic gradient computation is starting...
	Computing response density matrices...
	Computing off-diagonal blocks of GFM...
	Forming independent-pairs...
	Number of alpha independent-pairs:199
	Number of beta independent-pairs :170
	Computing orbital gradient...
	Computing diagonal blocks of GFM...
	Solving orbital Z-vector equations...
	Forming relaxed response density matrices...
	Forming relaxed GFM...
	Writing particle density matrices and GFM to disk...
	Necessary information has been sent to DERIV, which will take care of the rest.

*** tstop() called on c4-9.compute.lan at Tue Feb 23 13:26:16 2021
Module time:
	user time   =       4.28 seconds =       0.07 minutes
	system time =       2.22 seconds =       0.04 minutes
	total time  =          6 seconds =       0.10 minutes
Total time:
	user time   =      10.81 seconds =       0.18 minutes
	system time =       2.48 seconds =       0.04 minutes
	total time  =         13 seconds =       0.22 minutes
  Cartesian Displacement SALCs
  By SALC:
  Number of SALCs: 2, nirreps: A1
  Project out translations: False
  Project out rotations: False
	irrep = 0, ncomponent = 1
		0: atom 0, direction z, coef 1.000000
	irrep = 0, ncomponent = 1
		0: atom 1, direction z, coef 1.000000

  By Atomic Center:
  Number of atomic centers: 2
   Atomic Center 0:
	x component, size = 0
	y component, size = 0
	z component, size = 1
		0: salc 0, irrep 0, coef 1.000000
   Atomic Center 1:
	x component, size = 0
	y component, size = 0
	z component, size = 1
		0: salc 1, irrep 0, coef 1.000000

    Molecular point group: c2v
    Full point group: C_inf_v

    Geometry (in Bohr), charge = 0, multiplicity = 2:

       Center              X                  Y                   Z       
    ------------   -----------------  -----------------  -----------------
         O            0.000000000000     0.000000000000    -0.106176220599
         H            0.000000000000     0.000000000000     1.685093670823

	Presorting MO-basis TPDMs.
	Sorting File: MO TPDM (AA|AA) nbuckets = 1
	Sorting File: MO TPDM (AA|aa) nbuckets = 1
	Sorting File: MO TPDM (aa|aa) nbuckets = 1
	Starting first half-transformation.
	Sorting half-transformed TPDMs.
	First half integral transformation complete.


  -Nuclear Repulsion Energy 1st Derivatives:
     Atom            X                  Y                   Z
    ------   -----------------  -----------------  -----------------
       1        0.000000000000     0.000000000000     2.493262096379
       2        0.000000000000     0.000000000000    -2.493262096379


  -Core Hamiltonian Gradient:
     Atom            X                  Y                   Z
    ------   -----------------  -----------------  -----------------
       1        0.000000000000     0.000000000000    -4.731936754715
       2        0.000000000000     0.000000000000     4.731936754715


  -Lagrangian contribution to gradient:
     Atom            X                  Y                   Z
    ------   -----------------  -----------------  -----------------
       1        0.000000000000     0.000000000000     0.218156863710
       2        0.000000000000     0.000000000000    -0.218156863710


  -Two-electron contribution to gradient:
     Atom            X                  Y                   Z
    ------   -----------------  -----------------  -----------------
       1        0.000000000000     0.000000000000     2.039211427134
       2        0.000000000000     0.000000000000    -2.039211427134


  -Total gradient:
     Atom            X                  Y                   Z
    ------   -----------------  -----------------  -----------------
       1        0.000000000000     0.000000000000     0.018693632509
       2        0.000000000000     0.000000000000    -0.018693632509


			-----------------------------------------
			 OPTKING 2.0: for geometry optimizations 
			  - R.A. King,  Bethel University        
			-----------------------------------------

	Internal coordinates to be generated automatically.
	Detected frag 1 with atoms:  1 2
	---Fragment 1 Bond Connectivity---
	 1 : 2
	 2 : 1

	---Fragment 1 Geometry and Gradient---
	 O           0.0000000000        0.0000000000       -0.1061762206
	 H           0.0000000000        0.0000000000        1.6850936708
	             0.0000000000        0.0000000000        0.0186936325
	             0.0000000000        0.0000000000       -0.0186936325

	Previous optimization step data not found.  Starting new optimization.

	---Fragment 1 Intrafragment Coordinates---
	 - Coordinate -           - BOHR/RAD -       - ANG/DEG -
	 R(1,2)           =         1.791270	       0.947899

	Current energy   :       -75.6762309546

	Generating empirical Hessian (Schlegel '84) for each fragment.
	Taking RFO optimization step.
	Going to follow RFO solution 1.
	Using RFO vector 1.
	Norm of target step-size    0.03211
	Projected energy change by RFO approximation:        -0.0000846560

	Back-transformation to cartesian coordinates...
	Successfully converged to displaced geometry.

	--- Internal Coordinate Step in ANG or DEG, aJ/ANG or AJ/DEG ---
	 ---------------------------------------------------------------------------
	   Coordinate                Previous        Force       Change         New 
	   ----------                --------       ------       ------       ------
	    1 R(1,2)          =      0.947899     0.154012     0.016991     0.964890
	 ---------------------------------------------------------------------------
	Successfully symmetrized geometry.

  ==> Convergence Check <==

  Measures of convergence in internal coordinates in au.
  Criteria marked as inactive (o), active & met (*), and active & unmet ( ).
  --------------------------------------------------------------------------------------------- ~
   Step     Total Energy     Delta E     MAX Force     RMS Force      MAX Disp      RMS Disp    ~
  --------------------------------------------------------------------------------------------- ~
    Convergence Criteria             o    2.00e-06 *    1.00e-06 *    6.00e-06 *    4.00e-06 *  ~
  --------------------------------------------------------------------------------------------- ~
      1     -75.67623095   -7.57e+01 o    1.87e-02      1.87e-02      3.21e-02      3.21e-02    ~
  ---------------------------------------------------------------------------------------------

	Writing optimization data to binary file.
	Structure for next step:
	Cartesian Geometry (in Angstrom)
	    O     0.0000000000   0.0000000000  -0.0646816445
	    H     0.0000000000   0.0000000000   0.9002087734
			--------------------------
			 OPTKING Finished Execution 
			--------------------------

    Structure for next step:
    Molecular point group: c2v
    Full point group: C_inf_v

    Geometry (in Angstrom), charge = 0, multiplicity = 2:

    O       
    H             1          R1

    R1        =    0.9648904217

gradient() will perform analytic gradient computation.

*** tstart() called on c4-9.compute.lan
*** at Tue Feb 23 13:26:38 2021

   => Loading Basis Set <=

    Name: AUG-CC-PVQZ
    Role: ORBITAL
    Keyword: BASIS
    atoms 1 entry O          line   423 file /apps/gb/PSI4/1.4.0/share/psi4/basis/aug-cc-pvqz.gbs 
    atoms 2 entry H          line    40 file /apps/gb/PSI4/1.4.0/share/psi4/basis/aug-cc-pvqz.gbs 


         ---------------------------------------------------------
                                   SCF
               by Justin Turney, Rob Parrish, Andy Simmonett
                          and Daniel G. A. Smith
                              UHF Reference
                        1 Threads,   9536 MiB Core
         ---------------------------------------------------------

  ==> Geometry <==

    Molecular point group: c2v
    Full point group: C_inf_v

    Geometry (in Angstrom), charge = 0, multiplicity = 2:

       Center              X                  Y                   Z               Mass       
    ------------   -----------------  -----------------  -----------------  -----------------
         O            0.000000000000     0.000000000000    -0.057193178289    15.994914619570
         H            0.000000000000     0.000000000000     0.907697243363     1.007825032230

  Running in c2v symmetry.

  Rotational constants: A = ************  B =     19.09820  C =     19.09820 [cm^-1]
  Rotational constants: A = ************  B = 572549.50888  C = 572549.50888 [MHz]
  Nuclear repulsion =    4.387459539824960

  Charge       = 0
  Multiplicity = 2
  Electrons    = 9
  Nalpha       = 5
  Nbeta        = 4

  ==> Algorithm <==

  SCF Algorithm Type is PK.
  DIIS enabled.
  MOM disabled.
  Fractional occupation disabled.
  Guess Type is READ.
  Energy threshold   = 1.00e-10
  Density threshold  = 1.00e-10
  Integral threshold = 0.00e+00

  ==> Primary Basis <==

  Basis Set: AUG-CC-PVQZ
    Blend: AUG-CC-PVQZ
    Number of shells: 34
    Number of basis function: 126
    Number of Cartesian functions: 160
    Spherical Harmonics?: true
    Max angular momentum: 4

   => Loading Basis Set <=

    Name: AUG-CC-PVQZ
    Role: ORBITAL
    Keyword: BASIS
    atoms 1 entry O          line   423 file /apps/gb/PSI4/1.4.0/share/psi4/basis/aug-cc-pvqz.gbs 
    atoms 2 entry H          line    40 file /apps/gb/PSI4/1.4.0/share/psi4/basis/aug-cc-pvqz.gbs 

  Reading orbitals from file 180, no projection.

  ==> Pre-Iterations <==

   -------------------------------------------------------
    Irrep   Nso     Nmo     Nalpha   Nbeta   Ndocc  Nsocc
   -------------------------------------------------------
     A1        50      50       0       0       0       0
     A2        16      16       0       0       0       0
     B1        30      30       0       0       0       0
     B2        30      30       0       0       0       0
   -------------------------------------------------------
    Total     126     126       5       4       4       1
   -------------------------------------------------------

  ==> Integral Setup <==

  Using in-core PK algorithm.
   Calculation information:
      Number of atoms:                   2
      Number of AO shells:              34
      Number of primitives:             54
      Number of atomic orbitals:       160
      Number of basis functions:       126

      Integral cutoff                 1.00e-12
      Number of threads:                 1

  Performing in-core PK
  Using 64024002 doubles for integral storage.
  We computed 177310 shell quartets total.
  Whereas there are 177310 unique shell quartets.

  ==> DiskJK: Disk-Based J/K Matrices <==

    J tasked:                  Yes
    K tasked:                  Yes
    wK tasked:                  No
    Memory [MiB]:             7152
    Schwarz Cutoff:          1E-12

    OpenMP threads:              1

  Minimum eigenvalue in the overlap matrix is 1.3442371434E-04.
  Using Symmetric Orthogonalization.

  SCF Guess: Orbitals guess was supplied from a previous computation.

  ==> Iterations <==

                        Total Energy        Delta E     RMS |[F,P]|

   @UHF iter   0:   -75.41978694471916   -7.54198e+01   6.07698e-04 
   @UHF iter   1:   -75.42678852258598   -7.00158e-03   6.57895e-05 DIIS
   @UHF iter   2:   -75.42679714009206   -8.61751e-06   1.42871e-05 DIIS
   @UHF iter   3:   -75.42679783200424   -6.91912e-07   5.66661e-06 DIIS
   @UHF iter   4:   -75.42679803021450   -1.98210e-07   2.10065e-06 DIIS
   @UHF iter   5:   -75.42679805558548   -2.53710e-08   1.16194e-06 DIIS
   @UHF iter   6:   -75.42679806480872   -9.22324e-09   5.56567e-07 DIIS
   @UHF iter   7:   -75.42679806770710   -2.89837e-09   1.29058e-07 DIIS
   @UHF iter   8:   -75.42679806783553   -1.28438e-10   1.53936e-08 DIIS
   @UHF iter   9:   -75.42679806783696   -1.42109e-12   3.92010e-09 DIIS
   @UHF iter  10:   -75.42679806783713   -1.70530e-13   1.19922e-09 DIIS
   @UHF iter  11:   -75.42679806783710    2.84217e-14   2.31364e-10 DIIS
   @UHF iter  12:   -75.42679806783713   -2.84217e-14   5.15456e-11 DIIS
  Energy and wave function converged.


  ==> Post-Iterations <==

   @Spin Contamination Metric:   7.082327045E-03
   @S^2 Expected:                7.500000000E-01
   @S^2 Observed:                7.570823270E-01
   @S   Expected:                5.000000000E-01
   @S   Observed:                5.000000000E-01

    Orbital Energies [Eh]
    ---------------------

    Alpha Occupied:                                                       

       1A1   -20.638244     2A1    -1.390729     3A1    -0.684266  
       1B2    -0.659052     1B1    -0.561962  

    Alpha Virtual:                                                        

       4A1     0.027573     5A1     0.113379     2B2     0.130232  
       2B1     0.137605     6A1     0.161570     3B2     0.212935  
       3B1     0.217509     7A1     0.220535     8A1     0.348444  
       9A1     0.472029     1A2     0.473350    10A1     0.506897  
       4B2     0.545156     4B1     0.555608     5B2     0.621389  
       5B1     0.637917    11A1     0.647311     2A2     0.680423  
      12A1     0.681125    13A1     0.707708     6B2     0.736163  
       6B1     0.758506    14A1     0.784200     7B2     1.148574  
       7B1     1.167126    15A1     1.223257     8B2     1.322301  
       8B1     1.322311    16A1     1.471533     3A2     1.475238  
      17A1     1.485589     9B2     1.533272     9B1     1.553919  
      18A1     1.574748     4A2     1.575171    19A1     1.626563  
      20A1     1.648162    10B2     1.687767    10B1     1.703590  
      11B2     1.722546    11B1     1.722938     5A2     1.863401  
      21A1     1.863559    22A1     1.888785    12B2     2.093059  
      12B1     2.118460    23A1     2.421958    13B2     2.590736  
      13B1     2.637282    14B2     2.955472     6A2     2.967824  
      24A1     2.967961    14B1     2.973756    25A1     3.040662  
      26A1     3.601424     7A2     3.648651    27A1     3.648651  
      15B2     3.753686    15B1     3.796368    16B2     3.906782  
      16B1     3.907014    28A1     3.989106    17B2     4.076079  
      17B1     4.076405     8A2     4.137086    29A1     4.140019  
      18B2     4.147441    18B1     4.185336    30A1     4.195972  
       9A2     4.255423    31A1     4.258929    32A1     4.396628  
      19B2     4.740981    19B1     4.783114    10A2     4.804419  
      33A1     4.804924    34A1     5.153559    20B2     5.557080  
      20B1     5.596819    35A1     5.855203    21B2     6.689156  
      21B1     6.689156    22B2     7.729934    22B1     7.743336  
      36A1     7.761680    11A2     7.762551    37A1     7.848977  
      38A1     8.537860    12A2     8.538224    39A1     8.554529  
      23B2     8.686129    23B1     8.701676    40A1     9.769653  
      24B2     9.826955    24B1     9.853794    41A1    10.593512  
      13A2    10.593513    42A1    10.625878    25B2    10.742875  
      25B1    10.743089    26B2    10.823122    26B1    10.894719  
      43A1    11.180525    14A2    11.181266    27B2    11.499589  
      27B1    11.552972    44A1    11.587316    28B2    11.835749  
      28B1    11.835880    45A1    11.997278    15A2    11.998175  
      46A1    12.235115    29B2    12.716534    29B1    12.769878  
      16A2    12.796886    47A1    12.797334    48A1    14.382357  
      30B2    14.523337    30B1    14.574508    49A1    16.860394  
      50A1    43.004633  

    Beta Occupied:                                                        

       1A1   -20.598469     2A1    -1.232599     3A1    -0.640288  
       1B1    -0.513975  

    Beta Virtual:                                                         

       4A1     0.028597     1B2     0.060514     5A1     0.115130  
       2B1     0.139203     6A1     0.164609     2B2     0.178139  
       3B1     0.217531     7A1     0.223464     3B2     0.231865  
       8A1     0.356188     1A2     0.481522     9A1     0.481665  
      10A1     0.508656     4B1     0.554014     4B2     0.554730  
       5B1     0.641631    11A1     0.647892     5B2     0.659392  
       2A2     0.681079    12A1     0.681484    13A1     0.719026  
       6B1     0.764704    14A1     0.794118     6B2     0.805088  
       7B1     1.167131     7B2     1.176535    15A1     1.240576  
       8B1     1.329975     8B2     1.329983    16A1     1.490059  
       3A2     1.520175    17A1     1.521452     9B2     1.547360  
       9B1     1.553750     4A2     1.583763    18A1     1.584265  
      19A1     1.635202    20A1     1.650269    10B1     1.706327  
      10B2     1.710399    11B1     1.724094    11B2     1.724183  
      21A1     1.869474     5A2     1.869809    22A1     1.898729  
      12B1     2.122522    12B2     2.127506    23A1     2.429322  
      13B1     2.650956    13B2     2.680555    14B2     2.967116  
      14B1     2.972270    24A1     2.976184     6A2     2.976215  
      25A1     3.048072    26A1     3.617803     7A2     3.662170  
      27A1     3.662171    15B2     3.804569    15B1     3.806687  
      16B2     3.922628    16B1     3.922632    28A1     4.011115  
      17B2     4.107127    17B1     4.107127     8A2     4.155306  
      29A1     4.155772    18B2     4.179315    18B1     4.189216  
      30A1     4.234903     9A2     4.322847    31A1     4.323573  
      32A1     4.403028    19B2     4.787915    19B1     4.792190  
      10A2     4.836522    33A1     4.836689    34A1     5.168002  
      20B2     5.595972    20B1     5.604205    35A1     5.875382  
      21B2     6.690440    21B1     6.690440    22B2     7.734656  
      22B1     7.742143    36A1     7.767118    11A2     7.767797  
      37A1     7.853876    38A1     8.538219    12A2     8.538707  
      39A1     8.561033    23B2     8.690651    23B1     8.700678  
      40A1     9.777736    24B2     9.845910    24B1     9.857163  
      41A1    10.628991    13A2    10.628992    42A1    10.637445  
      25B2    10.771210    25B1    10.771213    26B2    10.914625  
      26B1    10.914733    43A1    11.202400    14A2    11.202718  
      27B2    11.534895    27B1    11.561082    44A1    11.610663  
      28B2    11.892731    28B1    11.892735    45A1    12.039934  
      15A2    12.040131    46A1    12.253957    29B2    12.764182  
      29B1    12.782459    16A2    12.863883    47A1    12.863940  
      48A1    14.397577    30B2    14.569687    30B1    14.586133  
      49A1    16.873543    50A1    43.028692  

    Final Occupation by Irrep:
             A1    A2    B1    B2 
    DOCC [     3,    0,    1,    0 ]
    SOCC [     0,    0,    0,    1 ]

  @UHF Final Energy:   -75.42679806783713

   => Energetics <=

    Nuclear Repulsion Energy =              4.3874595398249596
    One-Electron Energy =                -112.7089305015580010
    Two-Electron Energy =                  32.8946728938959225
    Total Energy =                        -75.4267980678371259

  UHF NO Occupations:
  HONO-2 :    2 A1 1.9992222
  HONO-1 :    3 A1 1.9978601
  HONO-0 :    1 B2 1.0000000
  LUNO+0 :    4 A1 0.0021399
  LUNO+1 :    5 A1 0.0007778
  LUNO+2 :    2 B1 0.0006250
  LUNO+3 :    6 A1 0.0000012


Computation Completed


Properties will be evaluated at   0.000000,   0.000000,   0.000000 [a0]

Properties computed using the SCF density matrix

  Nuclear Dipole Moment: [e a0]
     X:     0.0000      Y:     0.0000      Z:     0.8507

  Electronic Dipole Moment: [e a0]
     X:     0.0000      Y:     0.0000      Z:    -0.1607

  Dipole Moment: [e a0]
     X:     0.0000      Y:     0.0000      Z:     0.6900     Total:     0.6900

  Dipole Moment: [D]
     X:     0.0000      Y:     0.0000      Z:     1.7538     Total:     1.7538


*** tstop() called on c4-9.compute.lan at Tue Feb 23 13:26:43 2021
Module time:
	user time   =       5.32 seconds =       0.09 minutes
	system time =       0.42 seconds =       0.01 minutes
	total time  =          5 seconds =       0.08 minutes
Total time:
	user time   =      34.58 seconds =       0.58 minutes
	system time =       5.94 seconds =       0.10 minutes
	total time  =         40 seconds =       0.67 minutes
 MINTS: Wrapper to libmints.
   by Justin Turney

   Calculation information:
      Number of threads:                 1
      Number of atoms:                   2
      Number of AO shells:              34
      Number of SO shells:              34
      Number of primitives:             54
      Number of atomic orbitals:       160
      Number of basis functions:       126

      Number of irreps:                  4
      Integral cutoff                 0.00e+00
      Number of functions per irrep: [  50   16   30   30 ]

 OEINTS: Overlap, kinetic, potential, dipole, and quadrupole integrals
         stored in file 35.

      Computing two-electron integrals...done
      Computed 7374100 non-zero two-electron integrals.
        Stored in file 33.


*** tstart() called on c4-9.compute.lan
*** at Tue Feb 23 13:26:45 2021


 ============================================================================== 
 ============================================================================== 
 ============================================================================== 

                       MP2   
              Program Written by Ugur Bozkaya,
              Latest Revision June 25, 2014.

 ============================================================================== 
 ============================================================================== 
 ============================================================================== 

	RMS orbital gradient is changed to :     1.00e-07
	MAX orbital gradient is changed to :     1.00e-04
	MO spaces per irreps... 

	IRREP   FC   AOCC  BOCC  AVIR    BVIR  FV 
	==========================================
	  A1     0     3     3    47     47     0
	  A2     0     0     0    16     16     0
	  B1     0     1     1    29     29     0
	  B2     0     1     0    29     30     0
	==========================================

	Computing MP2 energy using SCF MOs (Canonical MP2)... 
	============================================================================== 
	Nuclear Repulsion Energy (a.u.)    :     4.38745953982496
	SCF Energy (a.u.)                  :   -75.42679806783713
	REF Energy (a.u.)                  :   -75.42679806783713
	Alpha-Alpha Contribution (a.u.)    :    -0.03700478851339
	Alpha-Beta Contribution (a.u.)     :    -0.19493606682326
	Beta-Beta Contribution (a.u.)      :    -0.01779893180633
	Scaled_SS Correlation Energy (a.u.):    -0.01826790677324
	Scaled_OS Correlation Energy (a.u.):    -0.23392328018791
	SCS-MP2 Total Energy (a.u.)        :   -75.67898925479827
	SOS-MP2 Total Energy (a.u.)        :   -75.42679806783713
	SCSN-MP2 Total Energy (a.u.)       :   -75.52325261559983
	SCS-MP2-VDW Total Energy (a.u.)    :   -75.70371809353077
	SOS-PI-MP2 Total Energy (a.u.)     :   -75.69970856138968
	MP2 Correlation Energy (a.u.)      :    -0.24973978714297
	MP2 Total Energy (a.u.)            :   -75.67653785498010
	============================================================================== 
	Analytic gradient computation is starting...
	Computing response density matrices...
	Computing off-diagonal blocks of GFM...
	Forming independent-pairs...
	Number of alpha independent-pairs:199
	Number of beta independent-pairs :170
	Computing orbital gradient...
	Computing diagonal blocks of GFM...
	Solving orbital Z-vector equations...
	Forming relaxed response density matrices...
	Forming relaxed GFM...
	Writing particle density matrices and GFM to disk...
	Necessary information has been sent to DERIV, which will take care of the rest.

*** tstop() called on c4-9.compute.lan at Tue Feb 23 13:26:55 2021
Module time:
	user time   =       4.89 seconds =       0.08 minutes
	system time =       4.20 seconds =       0.07 minutes
	total time  =         10 seconds =       0.17 minutes
Total time:
	user time   =      41.12 seconds =       0.69 minutes
	system time =      10.25 seconds =       0.17 minutes
	total time  =         52 seconds =       0.87 minutes
  Cartesian Displacement SALCs
  By SALC:
  Number of SALCs: 2, nirreps: A1
  Project out translations: False
  Project out rotations: False
	irrep = 0, ncomponent = 1
		0: atom 0, direction z, coef 1.000000
	irrep = 0, ncomponent = 1
		0: atom 1, direction z, coef 1.000000

  By Atomic Center:
  Number of atomic centers: 2
   Atomic Center 0:
	x component, size = 0
	y component, size = 0
	z component, size = 1
		0: salc 0, irrep 0, coef 1.000000
   Atomic Center 1:
	x component, size = 0
	y component, size = 0
	z component, size = 1
		0: salc 1, irrep 0, coef 1.000000

    Molecular point group: c2v
    Full point group: C_inf_v

    Geometry (in Bohr), charge = 0, multiplicity = 2:

       Center              X                  Y                   Z       
    ------------   -----------------  -----------------  -----------------
         O            0.000000000000     0.000000000000    -0.108079443210
         H            0.000000000000     0.000000000000     1.715299194789

	Presorting MO-basis TPDMs.
	Sorting File: MO TPDM (AA|AA) nbuckets = 1
	Sorting File: MO TPDM (AA|aa) nbuckets = 1
	Sorting File: MO TPDM (aa|aa) nbuckets = 1
	Starting first half-transformation.
	Sorting half-transformed TPDMs.
	First half integral transformation complete.


  -Nuclear Repulsion Energy 1st Derivatives:
     Atom            X                  Y                   Z
    ------   -----------------  -----------------  -----------------
       1        0.000000000000     0.000000000000     2.406225151700
       2        0.000000000000     0.000000000000    -2.406225151700


  -Core Hamiltonian Gradient:
     Atom            X                  Y                   Z
    ------   -----------------  -----------------  -----------------
       1        0.000000000000     0.000000000000    -4.643925695996
       2        0.000000000000     0.000000000000     4.643925695996


  -Lagrangian contribution to gradient:
     Atom            X                  Y                   Z
    ------   -----------------  -----------------  -----------------
       1        0.000000000000     0.000000000000     0.217122379479
       2        0.000000000000     0.000000000000    -0.217122379479


  -Two-electron contribution to gradient:
     Atom            X                  Y                   Z
    ------   -----------------  -----------------  -----------------
       1        0.000000000000     0.000000000000     2.021342689621
       2        0.000000000000     0.000000000000    -2.021342689621


  -Total gradient:
     Atom            X                  Y                   Z
    ------   -----------------  -----------------  -----------------
       1        0.000000000000     0.000000000000     0.000764524805
       2        0.000000000000     0.000000000000    -0.000764524805


			-----------------------------------------
			 OPTKING 2.0: for geometry optimizations 
			  - R.A. King,  Bethel University        
			-----------------------------------------

	Previous internal coordinate definitions found.
	---Fragment 1 Geometry and Gradient---
	 O           0.0000000000        0.0000000000       -0.1080794432
	 H           0.0000000000        0.0000000000        1.7152991948
	             0.0000000000        0.0000000000        0.0007645248
	             0.0000000000        0.0000000000       -0.0007645248

	---Fragment 1 Intrafragment Coordinates---
	 - Coordinate -           - BOHR/RAD -       - ANG/DEG -
	 R(1,2)           =         1.823379	       0.964890

	Current energy   :       -75.6765378550

	Energy change for the previous step:
		Projected    :        -0.0000846560
		Actual       :        -0.0003069003
	Energy ratio indicates good step: Trust radius increased to 1.000e+00.


	Performing BFGS update.
	Previous computed or guess Hessian on step 1.
	Steps to be used in Hessian update: 1
	Taking RFO optimization step.
	Going to follow RFO solution 1.
	Using RFO vector 1.
	Norm of target step-size    0.00137
	Projected energy change by RFO approximation:        -0.0000001095

	Back-transformation to cartesian coordinates...
	Successfully converged to displaced geometry.

	--- Internal Coordinate Step in ANG or DEG, aJ/ANG or AJ/DEG ---
	 ---------------------------------------------------------------------------
	   Coordinate                Previous        Force       Change         New 
	   ----------                --------       ------       ------       ------
	    1 R(1,2)          =      0.964890     0.006299     0.000725     0.965615
	 ---------------------------------------------------------------------------
	Successfully symmetrized geometry.

  ==> Convergence Check <==

  Measures of convergence in internal coordinates in au.
  Criteria marked as inactive (o), active & met (*), and active & unmet ( ).
  ---------------------------------------------------------------------------------------------
   Step     Total Energy     Delta E     MAX Force     RMS Force      MAX Disp      RMS Disp   
  ---------------------------------------------------------------------------------------------
    Convergence Criteria             o    2.00e-06 *    1.00e-06 *    6.00e-06 *    4.00e-06 *
  ---------------------------------------------------------------------------------------------
      2     -75.67653785   -3.07e-04 o    7.65e-04      7.65e-04      1.37e-03      1.37e-03    ~
  ---------------------------------------------------------------------------------------------

	Writing optimization data to binary file.
	Structure for next step:
	Cartesian Geometry (in Angstrom)
	    O     0.0000000000   0.0000000000  -0.0575554432
	    H     0.0000000000   0.0000000000   0.9080595050
			--------------------------
			 OPTKING Finished Execution 
			--------------------------

    Structure for next step:
    Molecular point group: c2v
    Full point group: C_inf_v

    Geometry (in Angstrom), charge = 0, multiplicity = 2:

    O       
    H             1          R1

    R1        =    0.9656149520

gradient() will perform analytic gradient computation.

*** tstart() called on c4-9.compute.lan
*** at Tue Feb 23 13:27:19 2021

   => Loading Basis Set <=

    Name: AUG-CC-PVQZ
    Role: ORBITAL
    Keyword: BASIS
    atoms 1 entry O          line   423 file /apps/gb/PSI4/1.4.0/share/psi4/basis/aug-cc-pvqz.gbs 
    atoms 2 entry H          line    40 file /apps/gb/PSI4/1.4.0/share/psi4/basis/aug-cc-pvqz.gbs 


         ---------------------------------------------------------
                                   SCF
               by Justin Turney, Rob Parrish, Andy Simmonett
                          and Daniel G. A. Smith
                              UHF Reference
                        1 Threads,   9536 MiB Core
         ---------------------------------------------------------

  ==> Geometry <==

    Molecular point group: c2v
    Full point group: C_inf_v

    Geometry (in Angstrom), charge = 0, multiplicity = 2:

       Center              X                  Y                   Z               Mass       
    ------------   -----------------  -----------------  -----------------  -----------------
         O            0.000000000000     0.000000000000    -0.057236124298    15.994914619570
         H            0.000000000000     0.000000000000     0.908378827692     1.007825032230

  Running in c2v symmetry.

  Rotational constants: A = ************  B =     19.06955  C =     19.06955 [cm^-1]
  Rotational constants: A = ************  B = 571690.62852  C = 571690.62852 [MHz]
  Nuclear repulsion =    4.384167495165039

  Charge       = 0
  Multiplicity = 2
  Electrons    = 9
  Nalpha       = 5
  Nbeta        = 4

  ==> Algorithm <==

  SCF Algorithm Type is PK.
  DIIS enabled.
  MOM disabled.
  Fractional occupation disabled.
  Guess Type is READ.
  Energy threshold   = 1.00e-10
  Density threshold  = 1.00e-10
  Integral threshold = 0.00e+00

  ==> Primary Basis <==

  Basis Set: AUG-CC-PVQZ
    Blend: AUG-CC-PVQZ
    Number of shells: 34
    Number of basis function: 126
    Number of Cartesian functions: 160
    Spherical Harmonics?: true
    Max angular momentum: 4

   => Loading Basis Set <=

    Name: AUG-CC-PVQZ
    Role: ORBITAL
    Keyword: BASIS
    atoms 1 entry O          line   423 file /apps/gb/PSI4/1.4.0/share/psi4/basis/aug-cc-pvqz.gbs 
    atoms 2 entry H          line    40 file /apps/gb/PSI4/1.4.0/share/psi4/basis/aug-cc-pvqz.gbs 

  Reading orbitals from file 180, no projection.

  ==> Pre-Iterations <==

   -------------------------------------------------------
    Irrep   Nso     Nmo     Nalpha   Nbeta   Ndocc  Nsocc
   -------------------------------------------------------
     A1        50      50       0       0       0       0
     A2        16      16       0       0       0       0
     B1        30      30       0       0       0       0
     B2        30      30       0       0       0       0
   -------------------------------------------------------
    Total     126     126       5       4       4       1
   -------------------------------------------------------

  ==> Integral Setup <==

  Using in-core PK algorithm.
   Calculation information:
      Number of atoms:                   2
      Number of AO shells:              34
      Number of primitives:             54
      Number of atomic orbitals:       160
      Number of basis functions:       126

      Integral cutoff                 1.00e-12
      Number of threads:                 1

  Performing in-core PK
  Using 64024002 doubles for integral storage.
  We computed 177310 shell quartets total.
  Whereas there are 177310 unique shell quartets.

  ==> DiskJK: Disk-Based J/K Matrices <==

    J tasked:                  Yes
    K tasked:                  Yes
    wK tasked:                  No
    Memory [MiB]:             7152
    Schwarz Cutoff:          1E-12

    OpenMP threads:              1

  Minimum eigenvalue in the overlap matrix is 1.3473407717E-04.
  Using Symmetric Orthogonalization.

  SCF Guess: Orbitals guess was supplied from a previous computation.

  ==> Iterations <==

                        Total Energy        Delta E     RMS |[F,P]|

   @UHF iter   0:   -75.42648085254848   -7.54265e+01   2.50350e-05 
   @UHF iter   1:   -75.42677661588799   -2.95763e-04   2.77720e-06 DIIS
   @UHF iter   2:   -75.42677663140987   -1.55219e-08   6.10086e-07 DIIS
   @UHF iter   3:   -75.42677663269026   -1.28040e-09   2.45668e-07 DIIS
   @UHF iter   4:   -75.42677663306685   -3.76588e-10   9.25582e-08 DIIS
   @UHF iter   5:   -75.42677663311663   -4.97806e-11   5.15266e-08 DIIS
   @UHF iter   6:   -75.42677663313512   -1.84883e-11   2.44656e-08 DIIS
   @UHF iter   7:   -75.42677663314063   -5.51381e-12   5.46061e-09 DIIS
   @UHF iter   8:   -75.42677663314092   -2.84217e-13   6.66319e-10 DIIS
   @UHF iter   9:   -75.42677663314086    5.68434e-14   1.73987e-10 DIIS
   @UHF iter  10:   -75.42677663314097   -1.13687e-13   5.26913e-11 DIIS
  Energy and wave function converged.


  ==> Post-Iterations <==

   @Spin Contamination Metric:   7.091941772E-03
   @S^2 Expected:                7.500000000E-01
   @S^2 Observed:                7.570919418E-01
   @S   Expected:                5.000000000E-01
   @S   Observed:                5.000000000E-01

    Orbital Energies [Eh]
    ---------------------

    Alpha Occupied:                                                       

       1A1   -20.638303     2A1    -1.390516     3A1    -0.684057  
       1B2    -0.659024     1B1    -0.561932  

    Alpha Virtual:                                                        

       4A1     0.027565     5A1     0.113368     2B2     0.130248  
       2B1     0.137623     6A1     0.161545     3B2     0.212910  
       3B1     0.217481     7A1     0.220535     8A1     0.348296  
       9A1     0.472037     1A2     0.473361    10A1     0.506840  
       4B2     0.545117     4B1     0.555565     5B2     0.621466  
       5B1     0.637997    11A1     0.647266     2A2     0.680472  
      12A1     0.681173    13A1     0.707679     6B2     0.736191  
       6B1     0.758541    14A1     0.784024     7B2     1.148328  
       7B1     1.166859    15A1     1.223184     8B2     1.322284  
       8B1     1.322294    16A1     1.471396     3A2     1.475234  
      17A1     1.485292     9B2     1.533276     9B1     1.553935  
      18A1     1.574629     4A2     1.575057    19A1     1.626447  
      20A1     1.648215    10B2     1.687948    10B1     1.703754  
      11B2     1.722437    11B1     1.722836     5A2     1.863666  
      21A1     1.863824    22A1     1.889124    12B2     2.093283  
      12B1     2.118684    23A1     2.421138    13B2     2.590114  
      13B1     2.636656    14B2     2.954924     6A2     2.966673  
      24A1     2.966815    14B1     2.973192    25A1     3.040283  
      26A1     3.601357     7A2     3.648682    27A1     3.648682  
      15B2     3.753730    15B1     3.796392    16B2     3.906476  
      16B1     3.906709    28A1     3.988794    17B2     4.076057  
      17B1     4.076380     8A2     4.137251    29A1     4.140172  
      18B2     4.147947    18B1     4.185847    30A1     4.195976  
       9A2     4.255111    31A1     4.258663    32A1     4.395881  
      19B2     4.740200    19B1     4.782364    10A2     4.803806  
      33A1     4.804309    34A1     5.154132    20B2     5.555325  
      20B1     5.595041    35A1     5.852947    21B2     6.688516  
      21B1     6.688517    22B2     7.729749    22B1     7.743143  
      36A1     7.759074    11A2     7.759940    37A1     7.846540  
      38A1     8.537657    12A2     8.538066    39A1     8.552431  
      23B2     8.686693    23B1     8.702212    40A1     9.767251  
      24B2     9.823679    24B1     9.850500    41A1    10.593543  
      13A2    10.593544    42A1    10.630273    25B2    10.742600  
      25B1    10.742809    26B2    10.823635    26B1    10.895236  
      43A1    11.179020    14A2    11.179764    27B2    11.499550  
      27B1    11.552921    44A1    11.586675    28B2    11.835758  
      28B1    11.835889    45A1    11.997035    15A2    11.998002  
      46A1    12.231025    29B2    12.713502    29B1    12.766844  
      16A2    12.796463    47A1    12.796912    48A1    14.376937  
      30B2    14.517313    30B1    14.568508    49A1    16.855245  
      50A1    42.999697  

    Beta Occupied:                                                        

       1A1   -20.598522     2A1    -1.232337     3A1    -0.640093  
       1B1    -0.513937  

    Beta Virtual:                                                         

       4A1     0.028591     1B2     0.060533     5A1     0.115125  
       2B1     0.139222     6A1     0.164585     2B2     0.178177  
       3B1     0.217501     7A1     0.223467     3B2     0.231832  
       8A1     0.356049     1A2     0.481531     9A1     0.481674  
      10A1     0.508587     4B1     0.553969     4B2     0.554687  
       5B1     0.641709    11A1     0.647849     5B2     0.659456  
       2A2     0.681126    12A1     0.681530    13A1     0.718992  
       6B1     0.764745    14A1     0.793938     6B2     0.805168  
       7B1     1.166851     7B2     1.176222    15A1     1.240498  
       8B1     1.329955     8B2     1.329964    16A1     1.489661  
       3A2     1.520195    17A1     1.521466     9B2     1.547383  
       9B1     1.553771     4A2     1.583618    18A1     1.584114  
      19A1     1.635074    20A1     1.650287    10B1     1.706495  
      10B2     1.710573    11B1     1.723986    11B2     1.724078  
      21A1     1.869741     5A2     1.870075    22A1     1.899075  
      12B1     2.122745    12B2     2.127700    23A1     2.428513  
      13B1     2.650334    13B2     2.679968    14B2     2.966537  
      14B1     2.971695    24A1     2.975022     6A2     2.975054  
      25A1     3.047691    26A1     3.617743     7A2     3.662201  
      27A1     3.662202    15B2     3.804563    15B1     3.806703  
      16B2     3.922302    16B1     3.922306    28A1     4.010813  
      17B1     4.107119    17B2     4.107119     8A2     4.155498  
      29A1     4.155960    18B2     4.179839    18B1     4.189736  
      30A1     4.234966     9A2     4.322457    31A1     4.323190  
      32A1     4.402248    19B2     4.787243    19B1     4.791468  
      10A2     4.835972    33A1     4.836139    34A1     5.168589  
      20B2     5.594163    20B1     5.602415    35A1     5.873126  
      21B2     6.689790    21B1     6.689790    22B2     7.734460  
      22B1     7.741944    36A1     7.764500    11A2     7.765177  
      37A1     7.851454    38A1     8.538000    12A2     8.538530  
      39A1     8.558893    23B2     8.691205    23B1     8.701210  
      40A1     9.775303    24B2     9.842602    24B1     9.853861  
      41A1    10.629024    13A2    10.629024    42A1    10.641873  
      25B2    10.770931    25B1    10.770934    26B2    10.915159  
      26B1    10.915258    43A1    11.200901    14A2    11.201219  
      27B2    11.534855    27B1    11.561031    44A1    11.609992  
      28B2    11.892745    28B1    11.892750    45A1    12.039750  
      15A2    12.039960    46A1    12.249862    29B2    12.761136  
      29B1    12.779428    16A2    12.863477    47A1    12.863533  
      48A1    14.392161    30B2    14.563722    30B1    14.580151  
      49A1    16.868400    50A1    43.023764  

    Final Occupation by Irrep:
             A1    A2    B1    B2 
    DOCC [     3,    0,    1,    0 ]
    SOCC [     0,    0,    0,    1 ]

  @UHF Final Energy:   -75.42677663314097

   => Energetics <=

    Nuclear Repulsion Energy =              4.3841674951650393
    One-Electron Energy =                -112.7031671043013574
    Two-Electron Energy =                  32.8922229759953524
    Total Energy =                        -75.4267766331409604

  UHF NO Occupations:
  HONO-2 :    2 A1 1.9992189
  HONO-1 :    3 A1 1.9978589
  HONO-0 :    1 B2 1.0000000
  LUNO+0 :    4 A1 0.0021411
  LUNO+1 :    5 A1 0.0007811
  LUNO+2 :    2 B1 0.0006254
  LUNO+3 :    6 A1 0.0000012


Computation Completed


Properties will be evaluated at   0.000000,   0.000000,   0.000000 [a0]

Properties computed using the SCF density matrix

  Nuclear Dipole Moment: [e a0]
     X:     0.0000      Y:     0.0000      Z:     0.8513

  Electronic Dipole Moment: [e a0]
     X:     0.0000      Y:     0.0000      Z:    -0.1611

  Dipole Moment: [e a0]
     X:     0.0000      Y:     0.0000      Z:     0.6902     Total:     0.6902

  Dipole Moment: [D]
     X:     0.0000      Y:     0.0000      Z:     1.7543     Total:     1.7543


*** tstop() called on c4-9.compute.lan at Tue Feb 23 13:27:25 2021
Module time:
	user time   =       5.58 seconds =       0.09 minutes
	system time =       0.46 seconds =       0.01 minutes
	total time  =          6 seconds =       0.10 minutes
Total time:
	user time   =      65.47 seconds =       1.09 minutes
	system time =      14.29 seconds =       0.24 minutes
	total time  =         82 seconds =       1.37 minutes
 MINTS: Wrapper to libmints.
   by Justin Turney

   Calculation information:
      Number of threads:                 1
      Number of atoms:                   2
      Number of AO shells:              34
      Number of SO shells:              34
      Number of primitives:             54
      Number of atomic orbitals:       160
      Number of basis functions:       126

      Number of irreps:                  4
      Integral cutoff                 0.00e+00
      Number of functions per irrep: [  50   16   30   30 ]

 OEINTS: Overlap, kinetic, potential, dipole, and quadrupole integrals
         stored in file 35.

      Computing two-electron integrals...done
      Computed 7374079 non-zero two-electron integrals.
        Stored in file 33.


*** tstart() called on c4-9.compute.lan
*** at Tue Feb 23 13:27:27 2021


 ============================================================================== 
 ============================================================================== 
 ============================================================================== 

                       MP2   
              Program Written by Ugur Bozkaya,
              Latest Revision June 25, 2014.

 ============================================================================== 
 ============================================================================== 
 ============================================================================== 

	RMS orbital gradient is changed to :     1.00e-07
	MAX orbital gradient is changed to :     1.00e-04
	MO spaces per irreps... 

	IRREP   FC   AOCC  BOCC  AVIR    BVIR  FV 
	==========================================
	  A1     0     3     3    47     47     0
	  A2     0     0     0    16     16     0
	  B1     0     1     1    29     29     0
	  B2     0     1     0    29     30     0
	==========================================

	Computing MP2 energy using SCF MOs (Canonical MP2)... 
	============================================================================== 
	Nuclear Repulsion Energy (a.u.)    :     4.38416749516504
	SCF Energy (a.u.)                  :   -75.42677663314097
	REF Energy (a.u.)                  :   -75.42677663314097
	Alpha-Alpha Contribution (a.u.)    :    -0.03700763345159
	Alpha-Beta Contribution (a.u.)     :    -0.19495349585627
	Beta-Beta Contribution (a.u.)      :    -0.01780064612438
	Scaled_SS Correlation Energy (a.u.):    -0.01826942652532
	Scaled_OS Correlation Energy (a.u.):    -0.23394419502753
	SCS-MP2 Total Energy (a.u.)        :   -75.67899025469383
	SOS-MP2 Total Energy (a.u.)        :   -75.42677663314097
	SCSN-MP2 Total Energy (a.u.)       :   -75.52323920519467
	SCS-MP2-VDW Total Energy (a.u.)    :   -75.70372124762500
	SOS-PI-MP2 Total Energy (a.u.)     :   -75.69971152733976
	MP2 Correlation Energy (a.u.)      :    -0.24976177543223
	MP2 Total Energy (a.u.)            :   -75.67653840857321
	============================================================================== 
	Analytic gradient computation is starting...
	Computing response density matrices...
	Computing off-diagonal blocks of GFM...
	Forming independent-pairs...
	Number of alpha independent-pairs:199
	Number of beta independent-pairs :170
	Computing orbital gradient...
	Computing diagonal blocks of GFM...
	Solving orbital Z-vector equations...
	Forming relaxed response density matrices...
	Forming relaxed GFM...
	Writing particle density matrices and GFM to disk...
	Necessary information has been sent to DERIV, which will take care of the rest.

*** tstop() called on c4-9.compute.lan at Tue Feb 23 13:27:34 2021
Module time:
	user time   =       4.61 seconds =       0.08 minutes
	system time =       2.32 seconds =       0.04 minutes
	total time  =          7 seconds =       0.12 minutes
Total time:
	user time   =      71.83 seconds =       1.20 minutes
	system time =      16.74 seconds =       0.28 minutes
	total time  =         91 seconds =       1.52 minutes
  Cartesian Displacement SALCs
  By SALC:
  Number of SALCs: 2, nirreps: A1
  Project out translations: False
  Project out rotations: False
	irrep = 0, ncomponent = 1
		0: atom 0, direction z, coef 1.000000
	irrep = 0, ncomponent = 1
		0: atom 1, direction z, coef 1.000000

  By Atomic Center:
  Number of atomic centers: 2
   Atomic Center 0:
	x component, size = 0
	y component, size = 0
	z component, size = 1
		0: salc 0, irrep 0, coef 1.000000
   Atomic Center 1:
	x component, size = 0
	y component, size = 0
	z component, size = 1
		0: salc 1, irrep 0, coef 1.000000

    Molecular point group: c2v
    Full point group: C_inf_v

    Geometry (in Bohr), charge = 0, multiplicity = 2:

       Center              X                  Y                   Z       
    ------------   -----------------  -----------------  -----------------
         O            0.000000000000     0.000000000000    -0.108160599405
         H            0.000000000000     0.000000000000     1.716587202503

	Presorting MO-basis TPDMs.
	Sorting File: MO TPDM (AA|AA) nbuckets = 1
	Sorting File: MO TPDM (AA|aa) nbuckets = 1
	Sorting File: MO TPDM (aa|aa) nbuckets = 1
	Starting first half-transformation.
	Sorting half-transformed TPDMs.
	First half integral transformation complete.


  -Nuclear Repulsion Energy 1st Derivatives:
     Atom            X                  Y                   Z
    ------   -----------------  -----------------  -----------------
       1        0.000000000000     0.000000000000     2.402615578208
       2        0.000000000000     0.000000000000    -2.402615578208


  -Core Hamiltonian Gradient:
     Atom            X                  Y                   Z
    ------   -----------------  -----------------  -----------------
       1        0.000000000000     0.000000000000    -4.640166597662
       2        0.000000000000     0.000000000000     4.640166597662


  -Lagrangian contribution to gradient:
     Atom            X                  Y                   Z
    ------   -----------------  -----------------  -----------------
       1        0.000000000000     0.000000000000     0.217069098809
       2        0.000000000000     0.000000000000    -0.217069098809


  -Two-electron contribution to gradient:
     Atom            X                  Y                   Z
    ------   -----------------  -----------------  -----------------
       1        0.000000000000     0.000000000000     2.020526641602
       2        0.000000000000     0.000000000000    -2.020526641602


  -Total gradient:
     Atom            X                  Y                   Z
    ------   -----------------  -----------------  -----------------
       1        0.000000000000     0.000000000000     0.000044720956
       2        0.000000000000     0.000000000000    -0.000044720956


			-----------------------------------------
			 OPTKING 2.0: for geometry optimizations 
			  - R.A. King,  Bethel University        
			-----------------------------------------

	Previous internal coordinate definitions found.
	---Fragment 1 Geometry and Gradient---
	 O           0.0000000000        0.0000000000       -0.1081605994
	 H           0.0000000000        0.0000000000        1.7165872025
	             0.0000000000        0.0000000000        0.0000447210
	             0.0000000000        0.0000000000       -0.0000447210

	---Fragment 1 Intrafragment Coordinates---
	 - Coordinate -           - BOHR/RAD -       - ANG/DEG -
	 R(1,2)           =         1.824748	       0.965615

	Current energy   :       -75.6765384086

	Energy change for the previous step:
		Projected    :        -0.0000001095
		Actual       :        -0.0000005536

	Performing BFGS update.
	Previous computed or guess Hessian on step 1.
	Steps to be used in Hessian update: 2 1
	Taking RFO optimization step.
	Going to follow RFO solution 1.
	Using RFO vector 1.
	Norm of target step-size    0.00008
	Projected energy change by RFO approximation:        -0.0000000004

	Back-transformation to cartesian coordinates...
	Successfully converged to displaced geometry.

	--- Internal Coordinate Step in ANG or DEG, aJ/ANG or AJ/DEG ---
	 ---------------------------------------------------------------------------
	   Coordinate                Previous        Force       Change         New 
	   ----------                --------       ------       ------       ------
	    1 R(1,2)          =      0.965615     0.000368     0.000042     0.965657
	 ---------------------------------------------------------------------------
	Successfully symmetrized geometry.

  ==> Convergence Check <==

  Measures of convergence in internal coordinates in au.
  Criteria marked as inactive (o), active & met (*), and active & unmet ( ).
  ---------------------------------------------------------------------------------------------
   Step     Total Energy     Delta E     MAX Force     RMS Force      MAX Disp      RMS Disp   
  ---------------------------------------------------------------------------------------------
    Convergence Criteria             o    2.00e-06 *    1.00e-06 *    6.00e-06 *    4.00e-06 *
  ---------------------------------------------------------------------------------------------
      3     -75.67653841   -5.54e-07 o    4.47e-05      4.47e-05      8.03e-05      8.03e-05    ~
  ---------------------------------------------------------------------------------------------

	Writing optimization data to binary file.
	Structure for next step:
	Cartesian Geometry (in Angstrom)
	    O     0.0000000000   0.0000000000  -0.0572573657
	    H     0.0000000000   0.0000000000   0.9084000657
			--------------------------
			 OPTKING Finished Execution 
			--------------------------

    Structure for next step:
    Molecular point group: c2v
    Full point group: C_inf_v

    Geometry (in Angstrom), charge = 0, multiplicity = 2:

    O       
    H             1          R1

    R1        =    0.9656574352

gradient() will perform analytic gradient computation.

*** tstart() called on c4-9.compute.lan
*** at Tue Feb 23 13:27:56 2021

   => Loading Basis Set <=

    Name: AUG-CC-PVQZ
    Role: ORBITAL
    Keyword: BASIS
    atoms 1 entry O          line   423 file /apps/gb/PSI4/1.4.0/share/psi4/basis/aug-cc-pvqz.gbs 
    atoms 2 entry H          line    40 file /apps/gb/PSI4/1.4.0/share/psi4/basis/aug-cc-pvqz.gbs 


         ---------------------------------------------------------
                                   SCF
               by Justin Turney, Rob Parrish, Andy Simmonett
                          and Daniel G. A. Smith
                              UHF Reference
                        1 Threads,   9536 MiB Core
         ---------------------------------------------------------

  ==> Geometry <==

    Molecular point group: c2v
    Full point group: C_inf_v

    Geometry (in Angstrom), charge = 0, multiplicity = 2:

       Center              X                  Y                   Z               Mass       
    ------------   -----------------  -----------------  -----------------  -----------------
         O            0.000000000000     0.000000000000    -0.057238642458    15.994914619570
         H            0.000000000000     0.000000000000     0.908418792717     1.007825032230

  Running in c2v symmetry.

  Rotational constants: A = ************  B =     19.06787  C =     19.06787 [cm^-1]
  Rotational constants: A = ************  B = 571640.32765  C = 571640.32765 [MHz]
  Nuclear repulsion =    4.383974617866814

  Charge       = 0
  Multiplicity = 2
  Electrons    = 9
  Nalpha       = 5
  Nbeta        = 4

  ==> Algorithm <==

  SCF Algorithm Type is PK.
  DIIS enabled.
  MOM disabled.
  Fractional occupation disabled.
  Guess Type is READ.
  Energy threshold   = 1.00e-10
  Density threshold  = 1.00e-10
  Integral threshold = 0.00e+00

  ==> Primary Basis <==

  Basis Set: AUG-CC-PVQZ
    Blend: AUG-CC-PVQZ
    Number of shells: 34
    Number of basis function: 126
    Number of Cartesian functions: 160
    Spherical Harmonics?: true
    Max angular momentum: 4

   => Loading Basis Set <=

    Name: AUG-CC-PVQZ
    Role: ORBITAL
    Keyword: BASIS
    atoms 1 entry O          line   423 file /apps/gb/PSI4/1.4.0/share/psi4/basis/aug-cc-pvqz.gbs 
    atoms 2 entry H          line    40 file /apps/gb/PSI4/1.4.0/share/psi4/basis/aug-cc-pvqz.gbs 

  Reading orbitals from file 180, no projection.

  ==> Pre-Iterations <==

   -------------------------------------------------------
    Irrep   Nso     Nmo     Nalpha   Nbeta   Ndocc  Nsocc
   -------------------------------------------------------
     A1        50      50       0       0       0       0
     A2        16      16       0       0       0       0
     B1        30      30       0       0       0       0
     B2        30      30       0       0       0       0
   -------------------------------------------------------
    Total     126     126       5       4       4       1
   -------------------------------------------------------

  ==> Integral Setup <==

  Using in-core PK algorithm.
   Calculation information:
      Number of atoms:                   2
      Number of AO shells:              34
      Number of primitives:             54
      Number of atomic orbitals:       160
      Number of basis functions:       126

      Integral cutoff                 1.00e-12
      Number of threads:                 1

  Performing in-core PK
  Using 64024002 doubles for integral storage.
  We computed 177310 shell quartets total.
  Whereas there are 177310 unique shell quartets.

  ==> DiskJK: Disk-Based J/K Matrices <==

    J tasked:                  Yes
    K tasked:                  Yes
    wK tasked:                  No
    Memory [MiB]:             7152
    Schwarz Cutoff:          1E-12

    OpenMP threads:              1

  Minimum eigenvalue in the overlap matrix is 1.3475228577E-04.
  Using Symmetric Orthogonalization.

  SCF Guess: Orbitals guess was supplied from a previous computation.

  ==> Iterations <==

                        Total Energy        Delta E     RMS |[F,P]|

   @UHF iter   0:   -75.42675801043950   -7.54268e+01   1.46583e-06 
   @UHF iter   1:   -75.42677534549708   -1.73351e-05   1.62776e-07 DIIS
   @UHF iter   2:   -75.42677534555031   -5.32339e-11   3.57747e-08 DIIS
   @UHF iter   3:   -75.42677534555489   -4.57590e-12   1.44151e-08 DIIS
   @UHF iter   4:   -75.42677534555614   -1.25056e-12   5.43490e-09 DIIS
   @UHF iter   5:   -75.42677534555628   -1.42109e-13   3.02641e-09 DIIS
   @UHF iter   6:   -75.42677534555632   -4.26326e-14   1.43643e-09 DIIS
   @UHF iter   7:   -75.42677534555629    2.84217e-14   3.20097e-10 DIIS
   @UHF iter   8:   -75.42677534555644   -1.42109e-13   3.90861e-11 DIIS
  Energy and wave function converged.


  ==> Post-Iterations <==

   @Spin Contamination Metric:   7.092507333E-03
   @S^2 Expected:                7.500000000E-01
   @S^2 Observed:                7.570925073E-01
   @S   Expected:                5.000000000E-01
   @S   Observed:                5.000000000E-01

    Orbital Energies [Eh]
    ---------------------

    Alpha Occupied:                                                       

       1A1   -20.638307     2A1    -1.390504     3A1    -0.684045  
       1B2    -0.659022     1B1    -0.561930  

    Alpha Virtual:                                                        

       4A1     0.027565     5A1     0.113368     2B2     0.130249  
       2B1     0.137624     6A1     0.161544     3B2     0.212908  
       3B1     0.217479     7A1     0.220535     8A1     0.348287  
       9A1     0.472037     1A2     0.473361    10A1     0.506837  
       4B2     0.545115     4B1     0.555563     5B2     0.621470  
       5B1     0.638002    11A1     0.647264     2A2     0.680475  
      12A1     0.681175    13A1     0.707677     6B2     0.736192  
       6B1     0.758543    14A1     0.784013     7B2     1.148314  
       7B1     1.166843    15A1     1.223180     8B2     1.322283  
       8B1     1.322293    16A1     1.471388     3A2     1.475234  
      17A1     1.485275     9B2     1.533276     9B1     1.553936  
      18A1     1.574622     4A2     1.575050    19A1     1.626441  
      20A1     1.648219    10B2     1.687959    10B1     1.703764  
      11B2     1.722431    11B1     1.722830     5A2     1.863681  
      21A1     1.863840    22A1     1.889144    12B2     2.093296  
      12B1     2.118697    23A1     2.421090    13B2     2.590077  
      13B1     2.636620    14B2     2.954892     6A2     2.966605  
      24A1     2.966748    14B1     2.973159    25A1     3.040261  
      26A1     3.601353     7A2     3.648684    27A1     3.648684  
      15B2     3.753733    15B1     3.796394    16B2     3.906459  
      16B1     3.906691    28A1     3.988776    17B2     4.076055  
      17B1     4.076378     8A2     4.137261    29A1     4.140181  
      18B2     4.147977    18B1     4.185877    30A1     4.195976  
       9A2     4.255093    31A1     4.258647    32A1     4.395838  
      19B2     4.740154    19B1     4.782320    10A2     4.803770  
      33A1     4.804273    34A1     5.154166    20B2     5.555222  
      20B1     5.594937    35A1     5.852815    21B2     6.688479  
      21B1     6.688480    22B2     7.729739    22B1     7.743131  
      36A1     7.758921    11A2     7.759787    37A1     7.846397  
      38A1     8.537645    12A2     8.538056    39A1     8.552309  
      23B2     8.686726    23B1     8.702243    40A1     9.767111  
      24B2     9.823486    24B1     9.850306    41A1    10.593544  
      13A2    10.593546    42A1    10.630530    25B2    10.742584  
      25B1    10.742793    26B2    10.823665    26B1    10.895266  
      43A1    11.178932    14A2    11.179676    27B2    11.499548  
      27B1    11.552918    44A1    11.586637    28B2    11.835759  
      28B1    11.835890    45A1    11.997021    15A2    11.997992  
      46A1    12.230786    29B2    12.713325    29B1    12.766667  
      16A2    12.796438    47A1    12.796887    48A1    14.376619  
      30B2    14.516960    30B1    14.568156    49A1    16.854942  
      50A1    42.999409  

    Beta Occupied:                                                        

       1A1   -20.598525     2A1    -1.232321     3A1    -0.640081  
       1B1    -0.513935  

    Beta Virtual:                                                         

       4A1     0.028591     1B2     0.060534     5A1     0.115125  
       2B1     0.139224     6A1     0.164583     2B2     0.178179  
       3B1     0.217500     7A1     0.223467     3B2     0.231830  
       8A1     0.356041     1A2     0.481532     9A1     0.481675  
      10A1     0.508583     4B1     0.553966     4B2     0.554685  
       5B1     0.641713    11A1     0.647846     5B2     0.659460  
       2A2     0.681128    12A1     0.681533    13A1     0.718990  
       6B1     0.764747    14A1     0.793928     6B2     0.805173  
       7B1     1.166834     7B2     1.176204    15A1     1.240494  
       8B1     1.329954     8B2     1.329963    16A1     1.489637  
       3A2     1.520196    17A1     1.521467     9B2     1.547385  
       9B1     1.553772     4A2     1.583610    18A1     1.584105  
      19A1     1.635066    20A1     1.650288    10B1     1.706505  
      10B2     1.710583    11B1     1.723979    11B2     1.724072  
      21A1     1.869757     5A2     1.870091    22A1     1.899095  
      12B1     2.122758    12B2     2.127712    23A1     2.428465  
[...]
   @UHF iter   2:   -75.42677526988351   -1.84741e-13   2.09980e-09 DIIS
   @UHF iter   3:   -75.42677526988349    1.42109e-14   8.46245e-10 DIIS
   @UHF iter   4:   -75.42677526988354   -4.26326e-14   3.19203e-10 DIIS
   @UHF iter   5:   -75.42677526988354    0.00000e+00   1.77791e-10 DIIS
   @UHF iter   6:   -75.42677526988351    2.84217e-14   8.43619e-11 DIIS
  Energy and wave function converged.


  ==> Post-Iterations <==

   @Spin Contamination Metric:   7.092540356E-03
   @S^2 Expected:                7.500000000E-01
   @S^2 Observed:                7.570925404E-01
   @S   Expected:                5.000000000E-01
   @S   Observed:                5.000000000E-01

    Orbital Energies [Eh]
    ---------------------

    Alpha Occupied:                                                       

       1A1   -20.638307     2A1    -1.390503     3A1    -0.684045  
       1B2    -0.659022     1B1    -0.561930  

    Alpha Virtual:                                                        

       4A1     0.027565     5A1     0.113368     2B2     0.130249  
       2B1     0.137624     6A1     0.161544     3B2     0.212908  
       3B1     0.217479     7A1     0.220535     8A1     0.348287  
       9A1     0.472037     1A2     0.473361    10A1     0.506837  
       4B2     0.545115     4B1     0.555563     5B2     0.621470  
       5B1     0.638002    11A1     0.647264     2A2     0.680475  
      12A1     0.681176    13A1     0.707677     6B2     0.736193  
       6B1     0.758543    14A1     0.784013     7B2     1.148313  
       7B1     1.166842    15A1     1.223180     8B2     1.322283  
       8B1     1.322293    16A1     1.471387     3A2     1.475234  
      17A1     1.485274     9B2     1.533276     9B1     1.553936  
      18A1     1.574621     4A2     1.575050    19A1     1.626440  
      20A1     1.648219    10B2     1.687960    10B1     1.703764  
      11B2     1.722430    11B1     1.722830     5A2     1.863682  
      21A1     1.863841    22A1     1.889145    12B2     2.093296  
      12B1     2.118698    23A1     2.421087    13B2     2.590075  
      13B1     2.636618    14B2     2.954890     6A2     2.966601  
      24A1     2.966744    14B1     2.973157    25A1     3.040260  
      26A1     3.601353     7A2     3.648684    27A1     3.648684  
      15B2     3.753733    15B1     3.796394    16B2     3.906458  
      16B1     3.906690    28A1     3.988775    17B2     4.076055  
      17B1     4.076378     8A2     4.137261    29A1     4.140182  
      18B2     4.147979    18B1     4.185879    30A1     4.195976  
       9A2     4.255092    31A1     4.258646    32A1     4.395835  
      19B2     4.740151    19B1     4.782317    10A2     4.803768  
      33A1     4.804271    34A1     5.154168    20B2     5.555216  
      20B1     5.594931    35A1     5.852807    21B2     6.688477  
      21B1     6.688478    22B2     7.729738    22B1     7.743131  
      36A1     7.758912    11A2     7.759778    37A1     7.846388  
      38A1     8.537644    12A2     8.538056    39A1     8.552302  
      23B2     8.686728    23B1     8.702245    40A1     9.767103  
      24B2     9.823475    24B1     9.850295    41A1    10.593544  
      13A2    10.593546    42A1    10.630545    25B2    10.742583  
      25B1    10.742792    26B2    10.823666    26B1    10.895268  
      43A1    11.178927    14A2    11.179671    27B2    11.499548  
      27B1    11.552918    44A1    11.586635    28B2    11.835759  
      28B1    11.835890    45A1    11.997020    15A2    11.997992  
      46A1    12.230772    29B2    12.713315    29B1    12.766656  
      16A2    12.796437    47A1    12.796886    48A1    14.376601  
      30B2    14.516939    30B1    14.568135    49A1    16.854924  
      50A1    42.999392  

    Beta Occupied:                                                        

       1A1   -20.598525     2A1    -1.232320     3A1    -0.640080  
       1B1    -0.513935  

    Beta Virtual:                                                         

       4A1     0.028591     1B2     0.060534     5A1     0.115125  
       2B1     0.139224     6A1     0.164583     2B2     0.178179  
       3B1     0.217500     7A1     0.223467     3B2     0.231830  
       8A1     0.356040     1A2     0.481532     9A1     0.481675  
      10A1     0.508583     4B1     0.553966     4B2     0.554685  
       5B1     0.641714    11A1     0.647846     5B2     0.659460  
       2A2     0.681128    12A1     0.681533    13A1     0.718990  
       6B1     0.764747    14A1     0.793927     6B2     0.805173  
       7B1     1.166833     7B2     1.176203    15A1     1.240494  
       8B1     1.329954     8B2     1.329962    16A1     1.489636  
       3A2     1.520196    17A1     1.521467     9B2     1.547385  
       9B1     1.553772     4A2     1.583609    18A1     1.584105  
      19A1     1.635066    20A1     1.650288    10B1     1.706506  
      10B2     1.710583    11B1     1.723979    11B2     1.724072  
      21A1     1.869758     5A2     1.870091    22A1     1.899097  
      12B1     2.122759    12B2     2.127712    23A1     2.428462  
      13B1     2.650295    13B2     2.679932    14B2     2.966501  
      14B1     2.971659    24A1     2.974950     6A2     2.974982  
      25A1     3.047667    26A1     3.617739     7A2     3.662203  
      27A1     3.662204    15B2     3.804562    15B1     3.806704  
      16B2     3.922282    16B1     3.922286    28A1     4.010795  
      17B1     4.107119    17B2     4.107119     8A2     4.155510  
      29A1     4.155971    18B2     4.179871    18B1     4.189768  
      30A1     4.234969     9A2     4.322433    31A1     4.323166  
      32A1     4.402200    19B2     4.787201    19B1     4.791423  
      10A2     4.835938    33A1     4.836105    34A1     5.168625  
      20B2     5.594051    20B1     5.602304    35A1     5.872986  
      21B2     6.689749    21B1     6.689749    22B2     7.734448  
      22B1     7.741932    36A1     7.764338    11A2     7.765014  
      37A1     7.851303    38A1     8.537986    12A2     8.538519  
      39A1     8.558761    23B2     8.691239    23B1     8.701243  
      40A1     9.775152    24B2     9.842396    24B1     9.853656  
      41A1    10.629026    13A2    10.629026    42A1    10.642147  
      25B2    10.770914    25B1    10.770917    26B2    10.915192  
      26B1    10.915290    43A1    11.200808    14A2    11.201127  
      27B2    11.534853    27B1    11.561028    44A1    11.609950  
      28B2    11.892746    28B1    11.892751    45A1    12.039739  
      15A2    12.039950    46A1    12.249608    29B2    12.760947  
      29B1    12.779240    16A2    12.863451    47A1    12.863508  
      48A1    14.391825    30B2    14.563352    30B1    14.579780  
      49A1    16.868080    50A1    43.023458  

    Final Occupation by Irrep:
             A1    A2    B1    B2 
    DOCC [     3,    0,    1,    0 ]
    SOCC [     0,    0,    0,    1 ]

  @UHF Final Energy:   -75.42677526988351

   => Energetics <=

    Nuclear Repulsion Energy =              4.3839632986279629
    One-Electron Energy =                -112.7028095597455319
    Two-Electron Energy =                  32.8920709912340641
    Total Energy =                        -75.4267752698835068

  UHF NO Occupations:
  HONO-2 :    2 A1 1.9992187
  HONO-1 :    3 A1 1.9978589
  HONO-0 :    1 B2 1.0000000
  LUNO+0 :    4 A1 0.0021411
  LUNO+1 :    5 A1 0.0007813
  LUNO+2 :    2 B1 0.0006254
  LUNO+3 :    6 A1 0.0000012


Computation Completed


Properties will be evaluated at   0.000000,   0.000000,   0.000000 [a0]

Properties computed using the SCF density matrix

  Nuclear Dipole Moment: [e a0]
     X:     0.0000      Y:     0.0000      Z:     0.8513

  Electronic Dipole Moment: [e a0]
     X:     0.0000      Y:     0.0000      Z:    -0.1611

  Dipole Moment: [e a0]
     X:     0.0000      Y:     0.0000      Z:     0.6902     Total:     0.6902

  Dipole Moment: [D]
     X:     0.0000      Y:     0.0000      Z:     1.7544     Total:     1.7544


*** tstop() called on c4-9.compute.lan at Tue Feb 23 13:28:42 2021
Module time:
	user time   =       4.40 seconds =       0.07 minutes
	system time =       0.41 seconds =       0.01 minutes
	total time  =          5 seconds =       0.08 minutes
Total time:
	user time   =     124.58 seconds =       2.08 minutes
	system time =      26.96 seconds =       0.45 minutes
	total time  =        159 seconds =       2.65 minutes
 MINTS: Wrapper to libmints.
   by Justin Turney

   Calculation information:
      Number of threads:                 1
      Number of atoms:                   2
      Number of AO shells:              34
      Number of SO shells:              34
      Number of primitives:             54
      Number of atomic orbitals:       160
      Number of basis functions:       126

      Number of irreps:                  4
      Integral cutoff                 0.00e+00
      Number of functions per irrep: [  50   16   30   30 ]

 OEINTS: Overlap, kinetic, potential, dipole, and quadrupole integrals
         stored in file 35.

      Computing two-electron integrals...done
      Computed 7374102 non-zero two-electron integrals.
        Stored in file 33.


*** tstart() called on c4-9.compute.lan
*** at Tue Feb 23 13:28:44 2021


 ============================================================================== 
 ============================================================================== 
 ============================================================================== 

                       MP2   
              Program Written by Ugur Bozkaya,
              Latest Revision June 25, 2014.

 ============================================================================== 
 ============================================================================== 
 ============================================================================== 

	RMS orbital gradient is changed to :     1.00e-07
	MAX orbital gradient is changed to :     1.00e-04
	MO spaces per irreps... 

	IRREP   FC   AOCC  BOCC  AVIR    BVIR  FV 
	==========================================
	  A1     0     3     3    47     47     0
	  A2     0     0     0    16     16     0
	  B1     0     1     1    29     29     0
	  B2     0     1     0    29     30     0
	==========================================

	Computing MP2 energy using SCF MOs (Canonical MP2)... 
	============================================================================== 
	Nuclear Repulsion Energy (a.u.)    :     4.38396329862796
	SCF Energy (a.u.)                  :   -75.42677526988351
	REF Energy (a.u.)                  :   -75.42677526988351
	Alpha-Alpha Contribution (a.u.)    :    -0.03700781002034
	Alpha-Beta Contribution (a.u.)     :    -0.19495457806622
	Beta-Beta Contribution (a.u.)      :    -0.01780075249238
	Scaled_SS Correlation Energy (a.u.):    -0.01826952083757
	Scaled_OS Correlation Energy (a.u.):    -0.23394549367946
	SCS-MP2 Total Energy (a.u.)        :   -75.67899028440054
	SOS-MP2 Total Energy (a.u.)        :   -75.42677526988351
	SCSN-MP2 Total Energy (a.u.)       :   -75.52323833990589
	SCS-MP2-VDW Total Energy (a.u.)    :   -75.70372141106462
	SOS-PI-MP2 Total Energy (a.u.)     :   -75.69971167917622
	MP2 Correlation Energy (a.u.)      :    -0.24976314057893
	MP2 Total Energy (a.u.)            :   -75.67653841046244
	============================================================================== 
	Analytic gradient computation is starting...
	Computing response density matrices...
	Computing off-diagonal blocks of GFM...
	Forming independent-pairs...
	Number of alpha independent-pairs:199
	Number of beta independent-pairs :170
	Computing orbital gradient...
	Computing diagonal blocks of GFM...
	Solving orbital Z-vector equations...
	Forming relaxed response density matrices...
	Forming relaxed GFM...
	Writing particle density matrices and GFM to disk...
	Necessary information has been sent to DERIV, which will take care of the rest.

*** tstop() called on c4-9.compute.lan at Tue Feb 23 13:28:54 2021
Module time:
	user time   =       5.19 seconds =       0.09 minutes
	system time =       3.63 seconds =       0.06 minutes
	total time  =         10 seconds =       0.17 minutes
Total time:
	user time   =     131.46 seconds =       2.19 minutes
	system time =      30.72 seconds =       0.51 minutes
	total time  =        171 seconds =       2.85 minutes
  Cartesian Displacement SALCs
  By SALC:
  Number of SALCs: 2, nirreps: A1
  Project out translations: False
  Project out rotations: False
	irrep = 0, ncomponent = 1
		0: atom 0, direction z, coef 1.000000
	irrep = 0, ncomponent = 1
		0: atom 1, direction z, coef 1.000000

  By Atomic Center:
  Number of atomic centers: 2
   Atomic Center 0:
	x component, size = 0
	y component, size = 0
	z component, size = 1
		0: salc 0, irrep 0, coef 1.000000
   Atomic Center 1:
	x component, size = 0
	y component, size = 0
	z component, size = 1
		0: salc 1, irrep 0, coef 1.000000

    Molecular point group: c2v
    Full point group: C_inf_v

    Geometry (in Bohr), charge = 0, multiplicity = 2:

       Center              X                  Y                   Z       
    ------------   -----------------  -----------------  -----------------
         O            0.000000000000     0.000000000000    -0.108165637317
         H            0.000000000000     0.000000000000     1.716667157817

	Presorting MO-basis TPDMs.
	Sorting File: MO TPDM (AA|AA) nbuckets = 1
	Sorting File: MO TPDM (AA|aa) nbuckets = 1
	Sorting File: MO TPDM (aa|aa) nbuckets = 1
	Starting first half-transformation.
	Sorting half-transformed TPDMs.
	First half integral transformation complete.


  -Nuclear Repulsion Energy 1st Derivatives:
     Atom            X                  Y                   Z
    ------   -----------------  -----------------  -----------------
       1        0.000000000000     0.000000000000     2.402391775465
       2        0.000000000000     0.000000000000    -2.402391775465


  -Core Hamiltonian Gradient:
     Atom            X                  Y                   Z
    ------   -----------------  -----------------  -----------------
       1        0.000000000000     0.000000000000    -4.639933234466
       2        0.000000000000     0.000000000000     4.639933234466


  -Lagrangian contribution to gradient:
     Atom            X                  Y                   Z
    ------   -----------------  -----------------  -----------------
       1        0.000000000000     0.000000000000     0.217065767586
       2        0.000000000000     0.000000000000    -0.217065767586


  -Two-electron contribution to gradient:
     Atom            X                  Y                   Z
    ------   -----------------  -----------------  -----------------
       1        0.000000000000     0.000000000000     2.020475845466
       2        0.000000000000     0.000000000000    -2.020475845466


  -Total gradient:
     Atom            X                  Y                   Z
    ------   -----------------  -----------------  -----------------
       1        0.000000000000     0.000000000000     0.000000154051
       2        0.000000000000     0.000000000000    -0.000000154051


			-----------------------------------------
			 OPTKING 2.0: for geometry optimizations 
			  - R.A. King,  Bethel University        
			-----------------------------------------

	Previous internal coordinate definitions found.
	---Fragment 1 Geometry and Gradient---
	 O           0.0000000000        0.0000000000       -0.1081656373
	 H           0.0000000000        0.0000000000        1.7166671578
	             0.0000000000        0.0000000000        0.0000001541
	             0.0000000000        0.0000000000       -0.0000001541

	---Fragment 1 Intrafragment Coordinates---
	 - Coordinate -           - BOHR/RAD -       - ANG/DEG -
	 R(1,2)           =         1.824833	       0.965660

	Current energy   :       -75.6765384105

	Energy change for the previous step:
		Projected    :        -0.0000000000
		Actual       :         0.0000000000

	Performing BFGS update.
	Previous computed or guess Hessian on step 1.
	Denominators (dg)(dq) or (dq)(dq) are very small.
	 Skipping Hessian update for step 4.
	Denominators (dg)(dq) or (dq)(dq) are very small.
	 Skipping Hessian update for step 3.
	Steps to be used in Hessian update: 2 1
	Taking RFO optimization step.
	Going to follow RFO solution 1.
	Using RFO vector 1.
	Norm of target step-size    0.00000
	Projected energy change by RFO approximation:        -0.0000000000

	Back-transformation to cartesian coordinates...
	Successfully converged to displaced geometry.

	--- Internal Coordinate Step in ANG or DEG, aJ/ANG or AJ/DEG ---
	 ---------------------------------------------------------------------------
	   Coordinate                Previous        Force       Change         New 
	   ----------                --------       ------       ------       ------
	    1 R(1,2)          =      0.965660     0.000001     0.000000     0.965660
	 ---------------------------------------------------------------------------
	Successfully symmetrized geometry.

  ==> Convergence Check <==

  Measures of convergence in internal coordinates in au.
  Criteria marked as inactive (o), active & met (*), and active & unmet ( ).
  ---------------------------------------------------------------------------------------------
   Step     Total Energy     Delta E     MAX Force     RMS Force      MAX Disp      RMS Disp   
  ---------------------------------------------------------------------------------------------
    Convergence Criteria             o    2.00e-06 *    1.00e-06 *    6.00e-06 *    4.00e-06 *
  ---------------------------------------------------------------------------------------------
      5     -75.67653841    1.90e-11 o    1.54e-07 *    1.54e-07 *    2.77e-07 *    2.77e-07 *  ~
  ---------------------------------------------------------------------------------------------


  **** Optimization is complete! (in 5 steps) ****

  ==> Optimization Summary <==

  Measures of convergence in internal coordinates in au.
  --------------------------------------------------------------------------------------------------------------- ~
   Step         Total Energy             Delta E       MAX Force       RMS Force        MAX Disp        RMS Disp  ~
  --------------------------------------------------------------------------------------------------------------- ~
      1     -75.676230954639    -75.676230954639      0.01869363      0.01869363      0.03210875      0.03210875  ~
      2     -75.676537854980     -0.000306900341      0.00076452      0.00076452      0.00136916      0.00136916  ~
      3     -75.676538408573     -0.000000553593      0.00004472      0.00004472      0.00008028      0.00008028  ~
      4     -75.676538410481     -0.000000001908      0.00000262      0.00000262      0.00000471      0.00000471  ~
      5     -75.676538410462      0.000000000019      0.00000015      0.00000015      0.00000028      0.00000028  ~
  --------------------------------------------------------------------------------------------------------------- ~

	Writing optimization data to binary file.
	Final energy is    -75.6765384104624
	Final (previous) structure:
	Cartesian Geometry (in Angstrom)
	    O     0.0000000000   0.0000000000  -0.0572387900
	    H     0.0000000000   0.0000000000   0.9084211347
	Saving final (previous) structure.
			--------------------------
			 OPTKING Finished Execution 
			--------------------------

    Final optimized geometry and variables:
    Molecular point group: c2v
    Full point group: C_inf_v

    Geometry (in Angstrom), charge = 0, multiplicity = 2:

    O       
    H             1          R1

    R1        =    0.9656599285

	Removing binary optimization data file.
	Cleaning optimization helper files.

    Psi4 stopped on: Tuesday, 23 February 2021 01:29PM
    Psi4 wall time for execution: 0:03:15.07

*** Psi4 exiting successfully. Buy a developer a beer!
