
    -----------------------------------------------------------------------
          Psi4: An Open-Source Ab Initio Electronic Structure Package
                               Psi4 1.3.2 release

                         Git: Rev {HEAD} ecbda83 


    R. M. Parrish, L. A. Burns, D. G. A. Smith, A. C. Simmonett,
    A. E. DePrince III, E. G. Hohenstein, U. Bozkaya, A. Yu. Sokolov,
    R. Di Remigio, R. M. Richard, J. F. Gonthier, A. M. James,
    H. R. McAlexander, A. Kumar, M. Saitow, X. Wang, B. P. Pritchard,
    P. Verma, H. F. Schaefer III, K. Patkowski, R. A. King, E. F. Valeev,
    F. A. Evangelista, J. M. Turney, T. D. Crawford, and C. D. Sherrill,
    J. Chem. Theory Comput. 13(7) pp 3185--3197 (2017).
    (doi: 10.1021/acs.jctc.7b00174)


                         Additional Contributions by
    P. Kraus, H. Kruse, M. H. Lechner, M. C. Schieber, R. A. Shaw,
    A. Alenaizan, R. Galvelis, Z. L. Glick, S. Lehtola, and J. P. Misiewicz

    -----------------------------------------------------------------------


    Psi4 started on: Wednesday, 10 March 2021 10:57AM

    Process ID: 117007
    Host:       c4-4.compute.lan
    PSIDATADIR: /apps/gb/PSI4/1.3.2/share/psi4
    Memory:     500.0 MiB
    Threads:    12
    
  ==> Input File <==

--------------------------------------------------------------------------
memory 4 GB

molecule  {
0 3
O   -1.504262781504   -0.001191536185    0.000000000000
H   -0.556937952930    0.154422277183    0.000000000000
H   -1.894059752161    0.878595097673    0.000000000000
O    1.658697919164   -0.063897949684    0.000000000000
}
set {
basis aug-cc-pvtz
reference uhf
e_convergence 10
scf_type pk
freeze_core true
}

set ccenergy {
e_convergence 10
r_convergence 10
}

e = energy('ccsd(t)')

print_out('Stephenergy {}'.format(e))

--------------------------------------------------------------------------

  Memory set to   3.725 GiB by Python driver.

*** tstart() called on c4-4.compute.lan
*** at Wed Mar 10 10:57:42 2021

   => Loading Basis Set <=

    Name: AUG-CC-PVTZ
    Role: ORBITAL
    Keyword: BASIS
    atoms 1, 4 entry O          line   327 file /apps/gb/PSI4/1.3.2/share/psi4/basis/aug-cc-pvtz.gbs 
    atoms 2-3  entry H          line    36 file /apps/gb/PSI4/1.3.2/share/psi4/basis/aug-cc-pvtz.gbs 


         ---------------------------------------------------------
                                   SCF
               by Justin Turney, Rob Parrish, Andy Simmonett
                          and Daniel G. A. Smith
                              UHF Reference
                       12 Threads,   3814 MiB Core
         ---------------------------------------------------------

  ==> Geometry <==

    Molecular point group: cs
    Full point group: Cs

    Geometry (in Angstrom), charge = 0, multiplicity = 3:

       Center              X                  Y                   Z               Mass       
    ------------   -----------------  -----------------  -----------------  -----------------
         O           -1.504262781504    -0.001191536185     0.000000000000    15.994914619570
         H           -0.556937952930     0.154422277183     0.000000000000     1.007825032230
         H           -1.894059752161     0.878595097673     0.000000000000     1.007825032230
         O            1.658697919164    -0.063897949684     0.000000000000    15.994914619570

  Running in cs symmetry.

  Rotational constants: A =     23.21234  B =      0.20005  C =      0.19834 [cm^-1]
  Rotational constants: A = 695888.32495  B =   5997.20404  C =   5945.96142 [MHz]
  Nuclear repulsion =   22.915730866753037

  Charge       = 0
  Multiplicity = 3
  Electrons    = 18
  Nalpha       = 10
  Nbeta        = 8

  ==> Algorithm <==

  SCF Algorithm Type is PK.
  DIIS enabled.
  MOM disabled.
  Fractional occupation disabled.
  Guess Type is SAD.
  Energy threshold   = 1.00e-10
  Density threshold  = 1.00e-08
  Integral threshold = 0.00e+00

  ==> Primary Basis <==

  Basis Set: AUG-CC-PVTZ
    Blend: AUG-CC-PVTZ
    Number of shells: 46
    Number of basis function: 138
    Number of Cartesian functions: 160
    Spherical Harmonics?: true
    Max angular momentum: 3

  ==> Pre-Iterations <==

   -------------------------------------------------------
    Irrep   Nso     Nmo     Nalpha   Nbeta   Ndocc  Nsocc
   -------------------------------------------------------
     A'        92      92       0       0       0       0
     A"        46      46       0       0       0       0
   -------------------------------------------------------
    Total     138     138      10       8       8       2
   -------------------------------------------------------

  ==> Integral Setup <==

  Using in-core PK algorithm.
   Calculation information:
      Number of atoms:                   4
      Number of AO shells:              46
      Number of primitives:             82
      Number of atomic orbitals:       160
      Number of basis functions:       138

      Integral cutoff                 1.00e-12
      Number of threads:                12

  Performing in-core PK
  Using 91996872 doubles for integral storage.
  We computed 901900 shell quartets total.
  Whereas there are 584821 unique shell quartets.
    54.22 percent of shell quartets recomputed by reordering.

  ==> DiskJK: Disk-Based J/K Matrices <==

    J tasked:                  Yes
    K tasked:                  Yes
    wK tasked:                  No
    Memory [MiB]:             2861
    Schwarz Cutoff:          1E-12

    OpenMP threads:             12

  Minimum eigenvalue in the overlap matrix is 2.9338139099E-04.
  Using Symmetric Orthogonalization.

  SCF Guess: Superposition of Atomic Densities via on-the-fly atomic UHF.

  ==> Iterations <==

                        Total Energy        Delta E     RMS |[F,P]|

   @UHF iter SAD:  -149.40181385268301   -1.49402e+02   0.00000e+00 
   @UHF iter   1:  -150.76395551119538   -1.36214e+00   5.04879e-03 DIIS
   @UHF iter   2:  -150.83817494101896   -7.42194e-02   3.27479e-03 DIIS
   @UHF iter   3:  -150.87321914563279   -3.50442e-02   3.92796e-04 DIIS
   @UHF iter   4:  -150.87433245849479   -1.11331e-03   1.30577e-04 DIIS
   @UHF iter   5:  -150.87445932626491   -1.26868e-04   5.12017e-05 DIIS
   @UHF iter   6:  -150.87449364012951   -3.43139e-05   1.54253e-05 DIIS
   @UHF iter   7:  -150.87449747731159   -3.83718e-06   5.59522e-06 DIIS
   @UHF iter   8:  -150.87449834673765   -8.69426e-07   4.45886e-06 DIIS
   @UHF iter   9:  -150.87449909001293   -7.43275e-07   4.34432e-06 DIIS
   @UHF iter  10:  -150.87450023211571   -1.14210e-06   4.28677e-06 DIIS
   @UHF iter  11:  -150.87450696024231   -6.72813e-06   3.99765e-06 DIIS
   @UHF iter  12:  -150.87452442988433   -1.74696e-05   3.79393e-06 DIIS
   @UHF iter  13:  -150.87452586108083   -1.43120e-06   3.33576e-06 DIIS
   @UHF iter  14:  -150.87454326370829   -1.74026e-05   8.55839e-06 DIIS
   @UHF iter  15:  -150.87454319610308    6.76052e-08   6.18263e-06 DIIS
   @UHF iter  16:  -150.87454482345953   -1.62736e-06   6.12614e-06 DIIS
   @UHF iter  17:  -150.87454504284625   -2.19387e-07   2.62049e-06 DIIS
   @UHF iter  18:  -150.87454511724252   -7.43963e-08   1.05969e-06 DIIS
   @UHF iter  19:  -150.87454512733098   -1.00885e-08   9.72929e-08 DIIS
   @UHF iter  20:  -150.87454512727669    5.42855e-11   1.40910e-07 DIIS
   @UHF iter  21:  -150.87454512739117   -1.14483e-10   5.64561e-09 DIIS
   @UHF iter  22:  -150.87454512739276   -1.59162e-12   8.71836e-10 DIIS
  Energy and wave function converged.


  ==> Post-Iterations <==

   @Spin Contamination Metric:   9.370245878E-03
   @S^2 Expected:                2.000000000E+00
   @S^2 Observed:                2.009370246E+00
   @S   Expected:                1.000000000E+00
   @S   Observed:                1.000000000E+00

    Orbital Energies [Eh]
    ---------------------

    Alpha Occupied:                                                       

       1Ap   -20.732934     2Ap   -20.558634     3Ap    -1.442263  
       4Ap    -1.343433     5Ap    -0.733050     1App   -0.732665  
       6Ap    -0.710844     7Ap    -0.634352     8Ap    -0.575111  
       2App   -0.502019  

    Alpha Virtual:                                                        

       9Ap     0.034200    10Ap     0.053488    11Ap     0.128183  
       3App    0.132923    12Ap     0.148151    13Ap     0.160760  
      14Ap     0.183888     4App    0.186767    15Ap     0.214118  
      16Ap     0.242107    17Ap     0.264330     5App    0.286336  
      18Ap     0.303849     6App    0.320783    19Ap     0.364907  
      20Ap     0.406178    21Ap     0.460274    22Ap     0.568442  
       7App    0.602697    23Ap     0.608821    24Ap     0.627458  
      25Ap     0.681956     8App    0.709534    26Ap     0.714762  
       9App    0.736599    10App    0.748477    27Ap     0.751223  
      28Ap     0.811593    11App    0.826057    29Ap     0.837303  
      12App    0.890866    30Ap     0.891396    31Ap     0.922993  
      32Ap     0.945060    13App    0.947508    33Ap     0.951348  
      14App    0.971606    34Ap     0.979293    35Ap     1.042943  
      36Ap     1.135819    15App    1.154004    37Ap     1.170450  
      38Ap     1.185618    39Ap     1.260428    16App    1.294725  
      40Ap     1.316601    17App    1.527397    41Ap     1.587151  
      18App    1.598859    42Ap     1.714640    43Ap     1.809884  
      44Ap     1.842173    45Ap     1.977644    19App    1.977821  
      46Ap     1.978693    20App    2.013282    47Ap     2.018108  
      21App    2.048353    48Ap     2.060521    22App    2.122299  
      49Ap     2.152744    50Ap     2.176087    23App    2.212367  
      24App    2.302464    51Ap     2.311908    52Ap     2.338012  
      53Ap     2.414768    25App    2.441895    54Ap     2.457129  
      55Ap     2.491705    26App    2.526559    56Ap     2.630667  
      57Ap     2.712295    27App    2.727258    58Ap     2.734845  
      59Ap     2.860479    60Ap     2.934548    28App    2.943207  
      61Ap     3.695391    62Ap     3.893208    29App    4.036374  
      30App    4.063092    63Ap     4.074164    31App    4.178839  
      64Ap     4.210331    65Ap     4.266120    32App    4.303311  
      33App    4.391628    66Ap     4.407728    34App    4.430854  
      67Ap     4.445350    68Ap     4.602264    69Ap     4.778921  
      70Ap     4.959638    35App    5.158272    71Ap     5.173646  
      72Ap     5.299853    73Ap     5.394638    36App    5.528384  
      74Ap     5.694062    75Ap     6.189976    37App    6.312480  
      76Ap     6.312511    38App    6.375476    77Ap     6.378198  
      39App    6.517732    78Ap     6.519088    79Ap     6.559346  
      80Ap     6.636900    40App    6.735866    81Ap     6.814549  
      41App    6.820193    82Ap     6.922238    42App    6.937008  
      83Ap     6.961618    84Ap     7.050981    43App    7.149493  
      44App    7.272046    85Ap     7.327522    45App    7.328401  
      86Ap     7.365503    46App    7.435140    87Ap     7.650436  
      88Ap     7.948721    89Ap     7.963341    90Ap     8.814617  
      91Ap     9.512509    92Ap    16.347054  

    Beta Occupied:                                                        

       1Ap   -20.654152     2Ap   -20.558762     3Ap    -1.343999  
       4Ap    -1.099799     5Ap    -0.710092     6Ap    -0.579970  
       7Ap    -0.541190     1App   -0.502060  

    Beta Virtual:                                                         

       8Ap     0.034355     2App    0.049451     9Ap     0.049675  
      10Ap     0.055211    11Ap     0.143823    12Ap     0.152957  
       3App    0.161152    13Ap     0.178038    14Ap     0.207843  
      15Ap     0.225439     4App    0.227252    16Ap     0.250867  
      17Ap     0.265602     5App    0.286544    18Ap     0.305986  
       6App    0.324504    19Ap     0.368808    20Ap     0.417047  
      21Ap     0.461560    22Ap     0.572009    23Ap     0.628240  
       7App    0.635097    24Ap     0.640515    25Ap     0.686731  
      26Ap     0.715417     8App    0.721649     9App    0.739739  
      10App    0.750112    27Ap     0.767857    28Ap     0.817972  
      29Ap     0.867716    11App    0.868988    30Ap     0.920118  
      12App    0.941712    31Ap     0.941828    13App    0.949678  
      32Ap     0.952752    33Ap     0.970327    34Ap     1.017763  
      14App    1.020181    35Ap     1.045279    15App    1.157151  
      36Ap     1.163444    37Ap     1.173804    38Ap     1.216845  
      39Ap     1.263538    16App    1.305317    40Ap     1.325340  
      17App    1.528087    41Ap     1.589432    18App    1.600316  
      42Ap     1.740917    43Ap     1.815321    44Ap     1.852854  
      45Ap     1.986379    46Ap     2.015787    19App    2.015798  
      20App    2.053661    47Ap     2.065319    21App    2.170243  
      48Ap     2.176107    22App    2.179689    49Ap     2.194091  
      50Ap     2.244667    23App    2.249855    24App    2.305877  
      51Ap     2.317365    52Ap     2.360781    53Ap     2.419342  
      25App    2.444583    54Ap     2.457918    55Ap     2.497989  
      26App    2.534988    56Ap     2.637763    27App    2.728586  
      57Ap     2.729020    58Ap     2.738446    59Ap     2.862306  
      60Ap     2.939034    28App    2.943829    61Ap     3.696056  
      62Ap     3.895545    29App    4.039337    30App    4.147534  
      63Ap     4.194189    64Ap     4.245228    31App    4.262715  
      65Ap     4.276816    32App    4.303369    33App    4.391697  
      66Ap     4.411444    34App    4.431538    67Ap     4.489715  
      68Ap     4.604792    69Ap     4.780540    70Ap     4.961594  
      35App    5.158258    71Ap     5.173928    72Ap     5.300085  
      73Ap     5.395889    36App    5.528445    74Ap     5.694420  
      75Ap     6.191194    76Ap     6.421332    37App    6.421337  
      38App    6.450663    77Ap     6.453421    78Ap     6.534233  
      39App    6.571649    79Ap     6.600101    80Ap     6.681921  
      40App    6.741801    81Ap     6.924127    41App    7.005266  
      82Ap     7.006949    42App    7.046380    83Ap     7.068387  
      84Ap     7.130715    43App    7.151862    44App    7.272258  
      85Ap     7.327806    45App    7.329154    86Ap     7.366329  
      46App    7.435545    87Ap     7.651304    88Ap     7.949904  
      89Ap     7.963530    90Ap     8.816147    91Ap     9.587497  
      92Ap    16.347331  

    Final Occupation by Irrep:
             Ap   App 
    DOCC [     7,    1 ]
    SOCC [     1,    1 ]

  @UHF Final Energy:  -150.87454512739276

   => Energetics <=

    Nuclear Repulsion Energy =             22.9157308667530373
    One-Electron Energy =                -253.6252238327679720
    Two-Electron Energy =                  79.8349478386221847
    Total Energy =                       -150.8745451273927358

  UHF NO Occupations:
  HONO-2 :    7 Ap 1.9970287
  HONO-1 :    2App 1.0000000
  HONO-0 :    8 Ap 1.0000000
  LUNO+0 :    9 Ap 0.0029713
  LUNO+1 :   10 Ap 0.0017149
  LUNO+2 :   11 Ap 0.0000024
  LUNO+3 :   12 Ap 0.0000017


Computation Completed


Properties will be evaluated at   0.000000,   0.000000,   0.000000 [a0]

Properties computed using the SCF density matrix

  Nuclear Dipole Moment: [e a0]
     X:    -2.2970      Y:     0.9681      Z:     0.0000

  Electronic Dipole Moment: [e a0]
     X:     2.7581      Y:    -0.2933      Z:     0.0000

  Dipole Moment: [e a0]
     X:     0.4611      Y:     0.6748      Z:     0.0000     Total:     0.8173

  Dipole Moment: [D]
     X:     1.1721      Y:     1.7151      Z:     0.0000     Total:     2.0773


*** tstop() called on c4-4.compute.lan at Wed Mar 10 10:57:48 2021
Module time:
	user time   =      64.65 seconds =       1.08 minutes
	system time =       1.17 seconds =       0.02 minutes
	total time  =          6 seconds =       0.10 minutes
Total time:
	user time   =      64.65 seconds =       1.08 minutes
	system time =       1.17 seconds =       0.02 minutes
	total time  =          6 seconds =       0.10 minutes
 MINTS: Wrapper to libmints.
   by Justin Turney

   Calculation information:
      Number of threads:                12
      Number of atoms:                   4
      Number of AO shells:              46
      Number of SO shells:              46
      Number of primitives:             82
      Number of atomic orbitals:       160
      Number of basis functions:       138

      Number of irreps:                  2
      Integral cutoff                 0.00e+00
      Number of functions per irrep: [  92   46 ]

 OEINTS: Overlap, kinetic, potential, dipole, and quadrupole integrals
         stored in file 35.

      Computing two-electron integrals...done
      Computed 22933140 non-zero two-electron integrals.
        Stored in file 33.


*** tstart() called on c4-4.compute.lan
*** at Wed Mar 10 10:57:51 2021


	Wfn Parameters:
	--------------------
	Wavefunction         = CCSD_T
	Number of irreps     = 2
	Number of MOs        = 138
	Number of active MOs = 136
	AO-Basis             = NONE
	Semicanonical        = false
	Reference            = UHF
	Print Level          = 1

	IRREP	# MOs	# FZDC	# DOCC	# SOCC	# VIRT	# FZVR
	-----	-----	------	------	------	------	------
	 Ap	   92	    2	    5	    1	    84	    0
	 App	   46	    0	    1	    1	    44	    0
	Transforming integrals...
	IWL integrals will be deleted.
	(OO|OO)...
	Presorting SO-basis two-electron integrals.
	Sorting File: SO Ints (nn|nn) nbuckets = 1
	Transforming the one-electron integrals and constructing Fock matrices
	Starting AA/AB first half-transformation.
	Sorting AA/AB half-transformed integrals.
	Starting BB first half-transformation.
	Sorting BB half-transformed integrals.
	First half integral transformation complete.
	Starting AA second half-transformation.
	Starting AB second half-transformation.
	Starting BB second half-transformation.
	Two-electron integral transformation complete.
	(OO|OV)...
	Starting AA second half-transformation.
	Starting AB second half-transformation.
	Starting BB second half-transformation.
	Two-electron integral transformation complete.
	(OO|VV)...
	Starting AA second half-transformation.
	Starting AB second half-transformation.
	Starting BB second half-transformation.
	Two-electron integral transformation complete.
	(OV|OO)...
	Starting AA/AB first half-transformation.
	Sorting AA/AB half-transformed integrals.
	Starting BB first half-transformation.
	Sorting BB half-transformed integrals.
	First half integral transformation complete.
	Starting AA second half-transformation.
	Starting AB second half-transformation.
	Starting BB second half-transformation.
	Two-electron integral transformation complete.
	(OV|OV)...
	Starting AA second half-transformation.
	Starting AB second half-transformation.
	Starting BB second half-transformation.
	Two-electron integral transformation complete.
	(OV|VV)...
	Starting AA second half-transformation.
	Starting AB second half-transformation.
	Starting BB second half-transformation.
	Two-electron integral transformation complete.
	(VV|OO)...
	Starting AA/AB first half-transformation.
	Sorting AA/AB half-transformed integrals.
	Starting BB first half-transformation.
	Sorting BB half-transformed integrals.
	First half integral transformation complete.
	Starting AA second half-transformation.
	Starting AB second half-transformation.
	Starting BB second half-transformation.
	Two-electron integral transformation complete.
	(VV|OV)...
	Starting AA second half-transformation.
	Starting AB second half-transformation.
	Starting BB second half-transformation.
	Two-electron integral transformation complete.
	(VV|VV)...
	Starting AA second half-transformation.
	Starting AB second half-transformation.
	Starting BB second half-transformation.
	Two-electron integral transformation complete.
	Frozen core energy     =   -125.86014498997469

	Size of irrep 0 of <AB|CD> integrals:     19.643 (MW) /    157.141 (MB)
	Size of irrep 1 of <AB|CD> integrals:     13.660 (MW) /    109.283 (MB)
	Total:                                    33.303 (MW) /    266.424 (MB)

	Size of irrep 0 of <ab|cd> integrals:     20.794 (MW) /    166.349 (MB)
	Size of irrep 1 of <ab|cd> integrals:     14.631 (MW) /    117.045 (MB)
	Total:                                    35.424 (MW) /    283.394 (MB)

	Size of irrep 0 of <Ab|Cd> integrals:     83.174 (MW) /    665.395 (MB)
	Size of irrep 1 of <Ab|Cd> integrals:     56.550 (MW) /    452.403 (MB)
	Total:                                   139.725 (MW) /   1117.798 (MB)

	Size of irrep 0 of <IA|BC> integrals:      5.323 (MW) /     42.586 (MB)
	Size of irrep 1 of <IA|BC> integrals:      3.193 (MW) /     25.547 (MB)
	Total:                                     8.517 (MW) /     68.133 (MB)

	Size of irrep 0 of <ia|bc> integrals:      4.348 (MW) /     34.780 (MB)
	Size of irrep 1 of <ia|bc> integrals:      2.372 (MW) /     18.972 (MB)
	Total:                                     6.719 (MW) /     53.752 (MB)

	Size of irrep 0 of <Ia|Bc> integrals:      5.472 (MW) /     43.776 (MB)
	Size of irrep 1 of <Ia|Bc> integrals:      3.309 (MW) /     26.470 (MB)
	Total:                                     8.781 (MW) /     70.246 (MB)

	Size of irrep 0 of <iA|bC> integrals:      4.232 (MW) /     33.853 (MB)
	Size of irrep 1 of <iA|bC> integrals:      2.286 (MW) /     18.289 (MB)
	Total:                                     6.518 (MW) /     52.142 (MB)

	Size of irrep 0 of tIjAb amplitudes:       0.292 (MW) /      2.335 (MB)
	Size of irrep 1 of tIjAb amplitudes:       0.120 (MW) /      0.963 (MB)
	Total:                                     0.412 (MW) /      3.297 (MB)

	Nuclear Rep. energy          =     22.91573086675304
	SCF energy                   =   -150.87454512739276
	One-electron energy          =    -84.40941548996824
	Two-electron (AA) energy     =     10.13704016680111
	Two-electron (BB) energy     =      5.39286876906253
	Two-electron (AB) energy     =     20.94937554993238
	Two-electron energy          =     36.47928448579601
	Reference energy             =   -150.87454512739384

*** tstop() called on c4-4.compute.lan at Wed Mar 10 10:58:25 2021
Module time:
	user time   =     107.60 seconds =       1.79 minutes
	system time =      18.68 seconds =       0.31 minutes
	total time  =         34 seconds =       0.57 minutes
Total time:
	user time   =     178.52 seconds =       2.98 minutes
	system time =      20.40 seconds =       0.34 minutes
	total time  =         43 seconds =       0.72 minutes
            **************************
            *                        *
            *        CCENERGY        *
            *                        *
            **************************

    Nuclear Rep. energy (wfn)     =   22.915730866753037
    SCF energy          (wfn)     = -150.874545127392764
    Reference energy    (file100) = -150.874545127393844

    Input parameters:
    -----------------
    Wave function   =     CCSD_T
    Reference wfn   =     UHF
    Brueckner       =     No
    Memory (Mbytes) =     4000.0
    Maxiter         =     50
    R_Convergence   =     1.0e-10
    E_Convergence   =     1.0e-10
    Restart         =     Yes
    DIIS            =     Yes
    AO Basis        =     NONE
    ABCD            =     NEW
    Cache Level     =     2
    Cache Type      =     LRU
    Print Level     =     1
    Num. of threads =     12
    # Amps to Print =     10
    Print MP2 Amps? =     No
    Analyze T2 Amps =     No
    Print Pair Ener =     No
    Local CC        =     No
    SCS-MP2         =     False
    SCSN-MP2        =     False
    SCS-CCSD        =     False

MP2 correlation energy -0.4165315054575891
                Solving CC Amplitude Equations
                ------------------------------
  Iter             Energy              RMS        T1Diag      D1Diag    New D1Diag    D2Diag
  ----     ---------------------    ---------   ----------  ----------  ----------   --------
     0        -0.416531505457589    0.000e+00    0.000000    0.000000    0.000000    0.000000
     1        -0.427273818180085    5.683e-02    0.010540    0.000000    0.000000    0.000000
     2        -0.435354030520340    1.687e-02    0.011021    0.000000    0.000000    0.000000
     3        -0.437472095856421    8.562e-03    0.012889    0.000000    0.000000    0.000000
     4        -0.437346306455833    2.533e-03    0.013256    0.000000    0.000000    0.000000
     5        -0.437331907497452    1.318e-03    0.013412    0.000000    0.000000    0.000000
     6        -0.437359128304903    5.140e-04    0.013433    0.000000    0.000000    0.000000
     7        -0.437363743657501    2.636e-04    0.013428    0.000000    0.000000    0.000000
     8        -0.437364343125946    9.919e-05    0.013423    0.000000    0.000000    0.000000
     9        -0.437365706589873    7.407e-05    0.013424    0.000000    0.000000    0.000000
    10        -0.437364159536302    6.409e-05    0.013425    0.000000    0.000000    0.000000
    11        -0.437364303816498    6.129e-05    0.013426    0.000000    0.000000    0.000000
    12        -0.437364014701962    5.963e-05    0.013429    0.000000    0.000000    0.000000
    13        -0.437364003759285    5.849e-05    0.013432    0.000000    0.000000    0.000000
    14        -0.437365179287905    5.660e-05    0.013451    0.000000    0.000000    0.000000
    15        -0.437365559419129    5.004e-05    0.013524    0.000000    0.000000    0.000000
    16        -0.437365337918124    3.345e-05    0.013665    0.000000    0.000000    0.000000
    17        -0.437364993282836    1.616e-05    0.013735    0.000000    0.000000    0.000000
    18        -0.437364865048269    7.574e-06    0.013752    0.000000    0.000000    0.000000
    19        -0.437365124358995    3.347e-06    0.013757    0.000000    0.000000    0.000000
    20        -0.437365235890951    1.500e-06    0.013757    0.000000    0.000000    0.000000
    21        -0.437365243790960    5.901e-07    0.013758    0.000000    0.000000    0.000000
    22        -0.437365245004903    2.795e-07    0.013758    0.000000    0.000000    0.000000
    23        -0.437365243904825    1.449e-07    0.013758    0.000000    0.000000    0.000000
    24        -0.437365243240806    6.001e-08    0.013758    0.000000    0.000000    0.000000
    25        -0.437365244199104    3.277e-08    0.013758    0.000000    0.000000    0.000000
    26        -0.437365244656458    2.541e-08    0.013758    0.000000    0.000000    0.000000
    27        -0.437365244815026    2.378e-08    0.013758    0.000000    0.000000    0.000000
    28        -0.437365244763081    2.303e-08    0.013758    0.000000    0.000000    0.000000
    29        -0.437365244600449    2.236e-08    0.013758    0.000000    0.000000    0.000000
    30        -0.437365244336768    2.125e-08    0.013758    0.000000    0.000000    0.000000
    31        -0.437365244537037    1.792e-08    0.013758    0.000000    0.000000    0.000000
    32        -0.437365244878814    9.346e-09    0.013758    0.000000    0.000000    0.000000
    33        -0.437365244978776    4.088e-09    0.013758    0.000000    0.000000    0.000000
    34        -0.437365245029192    1.670e-09    0.013758    0.000000    0.000000    0.000000
    35        -0.437365245035698    6.612e-10    0.013758    0.000000    0.000000    0.000000
    36        -0.437365245035349    2.831e-10    0.013758    0.000000    0.000000    0.000000
    37        -0.437365245033131    1.201e-10    0.013758    0.000000    0.000000    0.000000
    38        -0.437365245034558    5.683e-11    0.013758    0.000000    0.000000    0.000000

    Iterations converged.


    Largest TIA Amplitudes:
              7  87        -0.0121654047
              7  84        -0.0116116873
              7  85        -0.0094359379
              4   3         0.0090189000
              6  84        -0.0080591113
              5   9        -0.0076590267
              4  10         0.0070121171
              5   2        -0.0069892011
              2   2         0.0068766609
              7  86        -0.0062813433

    Largest Tia Amplitudes:
              5  86        -0.0122958734
              5  89        -0.0117502591
              5  85        -0.0098260732
              4   1        -0.0097884487
              3   3         0.0089503092
              3  10        -0.0070731647
              5  88        -0.0064726175
              5  87        -0.0059990989
              3  11         0.0058108407
              4   7        -0.0057290308

    Largest TIJAB Amplitudes:
      6   2  92  20        -0.0108078907
      6   2 101  38        -0.0097324213
      6   4  92  29        -0.0096371382
      6   2  92  21        -0.0089200353
      4   2  29  20        -0.0083337146
      4   2  41  40         0.0083099104
      6   2 102  38         0.0076467296
      4   2  29  21        -0.0074466646
      6   2 111  54        -0.0072989763
      6   2  88  38         0.0072544129

    Largest Tijab Amplitudes:
      4   1  42   1         0.0070045505
      4   1  91  85        -0.0068148422
      4   1  19   1         0.0064032808
      4   1 106  85        -0.0063296774
      5   2  94  13        -0.0062743140
      5   2  89  13        -0.0059119584
      5   2 100  17        -0.0057928700
      5   2  86  13        -0.0057411270
      5   2  92  17         0.0057119767
      3   2  18  15         0.0054367335

    Largest TIjAb Amplitudes:
      3   2  12  13        -0.0183325585
      2   1  38   1        -0.0169393790
      6   1  38  85        -0.0165202789
      4   4  29  30         0.0163373148
      4   1 103  85        -0.0151164369
      2   1 101  85         0.0145986028
      2   1  88  85        -0.0143780576
      6   1 101   1        -0.0143048164
      4   1  41   1        -0.0142734878
      6   1  88   1         0.0141078384

    SCF energy       (wfn)                    = -150.874545127392764
    Reference energy (file100)                = -150.874545127393844

    Opposite-spin MP2 correlation energy      =   -0.314575739959252
    Same-spin MP2 correlation energy          =   -0.101955765498337
    MP2 correlation energy                    =   -0.416531505457589
      * MP2 total energy                      = -151.291076632851428

    Opposite-spin CCSD correlation energy     =   -0.342118930403508
    Same-spin CCSD correlation energy         =   -0.095246314631050
    CCSD correlation energy                   =   -0.437365245034558
      * CCSD total energy                     = -151.311910372428400

            **************************
            *                        *
            *        CCTRIPLES       *
            *                        *
            **************************


    Wave function   =    CCSD_T
    Reference wfn   =      UHF

    Nuclear Rep. energy (wfn)                =   22.915730866753037
    SCF energy          (wfn)                = -150.874545127392764
    Reference energy    (file100)            = -150.874545127393844
    CCSD energy         (file100)            =   -0.437365245034558
    Total CCSD energy   (file100)            = -151.311910372428400

    Number of ijk index combinations:
    Spin Case AAA:                                  56
    Spin Case BBB:                                  20
    Spin Case AAB:                                 168
    Spin Case ABB:                                 120
    AAA (T) energy                             =   -0.000399264484170
    BBB (T) energy                             =   -0.000202434566790
    AAB (T) energy                             =   -0.006738004088991
    ABB (T) energy                             =   -0.005004585263719
    (T) energy                                   =   -0.012344288403670
      * CCSD(T) total energy                     = -151.324254660832082

Stephenergy -151.32425466083208
    Psi4 stopped on: Wednesday, 10 March 2021 11:01AM
    Psi4 wall time for execution: 0:03:37.74

*** Psi4 exiting successfully. Buy a developer a beer!
