
    -----------------------------------------------------------------------
          Psi4: An Open-Source Ab Initio Electronic Structure Package
                               Psi4 1.4a2.dev191 

                         Git: Rev {master} 0ab5346 


    R. M. Parrish, L. A. Burns, D. G. A. Smith, A. C. Simmonett,
    A. E. DePrince III, E. G. Hohenstein, U. Bozkaya, A. Yu. Sokolov,
    R. Di Remigio, R. M. Richard, J. F. Gonthier, A. M. James,
    H. R. McAlexander, A. Kumar, M. Saitow, X. Wang, B. P. Pritchard,
    P. Verma, H. F. Schaefer III, K. Patkowski, R. A. King, E. F. Valeev,
    F. A. Evangelista, J. M. Turney, T. D. Crawford, and C. D. Sherrill,
    J. Chem. Theory Comput. 13(7) pp 3185--3197 (2017).
    (doi: 10.1021/acs.jctc.7b00174)


                         Additional Contributions by
    P. Kraus, H. Kruse, M. H. Lechner, M. C. Schieber, R. A. Shaw,
    A. Alenaizan, R. Galvelis, Z. L. Glick, S. Lehtola, and J. P. Misiewicz

    -----------------------------------------------------------------------


    Psi4 started on: Tuesday, 23 February 2021 01:21PM

    Process ID: 218078
    Host:       c5-13.compute.lan
    PSIDATADIR: /apps/gb/PSI4/1.4.0/share/psi4
    Memory:     500.0 MiB
    Threads:    1
    
  ==> Input File <==

--------------------------------------------------------------------------
memory 10 GB

molecule {
0 2
O 
H 1 R1
R1 = 0.96
}

set {
basis aug-cc-pvdz
e_convergence 10
reference uhf
scf_type pk
g_convergence gau_verytight
}

optimize("scf")

--------------------------------------------------------------------------

  Memory set to   9.313 GiB by Python driver.
gradient() will perform analytic gradient computation.

*** tstart() called on c5-13.compute.lan
*** at Tue Feb 23 13:21:02 2021

   => Loading Basis Set <=

    Name: AUG-CC-PVDZ
    Role: ORBITAL
    Keyword: BASIS
    atoms 1 entry O          line   254 file /apps/gb/PSI4/1.4.0/share/psi4/basis/aug-cc-pvdz.gbs 
    atoms 2 entry H          line    40 file /apps/gb/PSI4/1.4.0/share/psi4/basis/aug-cc-pvdz.gbs 


         ---------------------------------------------------------
                                   SCF
               by Justin Turney, Rob Parrish, Andy Simmonett
                          and Daniel G. A. Smith
                              UHF Reference
                        1 Threads,   9536 MiB Core
         ---------------------------------------------------------

  ==> Geometry <==

    Molecular point group: c2v
    Full point group: C_inf_v

    Geometry (in Angstrom), charge = 0, multiplicity = 2:

       Center              X                  Y                   Z               Mass       
    ------------   -----------------  -----------------  -----------------  -----------------
         O            0.000000000000     0.000000000000    -0.056903302100    15.994914619570
         H            0.000000000000     0.000000000000     0.903096697900     1.007825032230

  Running in c2v symmetry.

  Rotational constants: A = ************  B =     19.29327  C =     19.29327 [cm^-1]
  Rotational constants: A = ************  B = 578397.71805  C = 578397.71805 [MHz]
  Nuclear repulsion =    4.409810088916667

  Charge       = 0
  Multiplicity = 2
  Electrons    = 9
  Nalpha       = 5
  Nbeta        = 4

  ==> Algorithm <==

  SCF Algorithm Type is PK.
  DIIS enabled.
  MOM disabled.
  Fractional occupation disabled.
  Guess Type is SAD.
  Energy threshold   = 1.00e-10
  Density threshold  = 1.00e-08
  Integral threshold = 0.00e+00

  ==> Primary Basis <==

  Basis Set: AUG-CC-PVDZ
    Blend: AUG-CC-PVDZ
    Number of shells: 14
    Number of basis function: 32
    Number of Cartesian functions: 34
    Spherical Harmonics?: true
    Max angular momentum: 2

  ==> Pre-Iterations <==

   -------------------------------------------------------
    Irrep   Nso     Nmo     Nalpha   Nbeta   Ndocc  Nsocc
   -------------------------------------------------------
     A1        16      16       0       0       0       0
     A2         2       2       0       0       0       0
     B1         7       7       0       0       0       0
     B2         7       7       0       0       0       0
   -------------------------------------------------------
    Total      32      32       5       4       4       1
   -------------------------------------------------------

  ==> Integral Setup <==

  Using in-core PK algorithm.
   Calculation information:
      Number of atoms:                   2
      Number of AO shells:              14
      Number of primitives:             32
      Number of atomic orbitals:        34
      Number of basis functions:        32

      Integral cutoff                 1.00e-12
      Number of threads:                 1

  Performing in-core PK
  Using 279312 doubles for integral storage.
  We computed 5565 shell quartets total.
  Whereas there are 5565 unique shell quartets.

  ==> DiskJK: Disk-Based J/K Matrices <==

    J tasked:                  Yes
    K tasked:                  Yes
    wK tasked:                  No
    Memory [MiB]:             7152
    Schwarz Cutoff:          1E-12

    OpenMP threads:              1

  Minimum eigenvalue in the overlap matrix is 3.3498119727E-03.
  Using Symmetric Orthogonalization.

  SCF Guess: Superposition of Atomic Densities via on-the-fly atomic UHF.

  ==> Iterations <==

                        Total Energy        Delta E     RMS |[F,P]|

   @UHF iter SAD:   -74.64265579982884   -7.46427e+01   0.00000e+00 
   @UHF iter   1:   -75.38125545799329   -7.38600e-01   1.11798e-02 DIIS
   @UHF iter   2:   -75.40075852392280   -1.95031e-02   4.21020e-03 DIIS
   @UHF iter   3:   -75.40334277889843   -2.58425e-03   1.22401e-03 DIIS
   @UHF iter   4:   -75.40375622809647   -4.13449e-04   4.07164e-04 DIIS
   @UHF iter   5:   -75.40382853392903   -7.23058e-05   1.76519e-04 DIIS
   @UHF iter   6:   -75.40384745452130   -1.89206e-05   5.98042e-05 DIIS
   @UHF iter   7:   -75.40385012659773   -2.67208e-06   1.73052e-05 DIIS
   @UHF iter   8:   -75.40385033801809   -2.11420e-07   4.14883e-06 DIIS
   @UHF iter   9:   -75.40385034766388   -9.64579e-09   1.10748e-06 DIIS
   @UHF iter  10:   -75.40385034840614   -7.42261e-10   1.61385e-07 DIIS
   @UHF iter  11:   -75.40385034841938   -1.32445e-11   1.95702e-08 DIIS
   @UHF iter  12:   -75.40385034841955   -1.70530e-13   5.22816e-09 DIIS
  Energy and wave function converged.


  ==> Post-Iterations <==

   @Spin Contamination Metric:   6.428196372E-03
   @S^2 Expected:                7.500000000E-01
   @S^2 Observed:                7.564281964E-01
   @S   Expected:                5.000000000E-01
   @S   Observed:                5.000000000E-01

    Orbital Energies [Eh]
    ---------------------

    Alpha Occupied:                                                       

       1A1   -20.650636     2A1    -1.395949     3A1    -0.687094  
       1B1    -0.657515     1B2    -0.562022  

    Alpha Virtual:                                                        

       4A1     0.035868     5A1     0.178127     2B1     0.184937  
       2B2     0.197792     6A1     0.226565     7A1     0.318517  
       3B1     0.387552     3B2     0.398000     8A1     0.628354  
       9A1     0.844493     1A2     0.956052    10A1     0.957879  
       4B1     1.086423     4B2     1.116952    11A1     1.317820  
       5B1     1.330383     5B2     1.389225    12A1     1.666954  
       6B1     2.018888     6B2     2.036992    13A1     2.514299  
      14A1     2.761848     2A2     3.483756    15A1     3.483756  
       7B1     3.594115     7B2     3.654333    16A1     4.114364  

    Beta Occupied:                                                        

       1A1   -20.609847     2A1    -1.238777     3A1    -0.642578  
       1B2    -0.512464  

    Beta Virtual:                                                         

       4A1     0.037293     1B1     0.064172     5A1     0.181355  
       2B2     0.201215     6A1     0.233453     2B1     0.257102  
       7A1     0.323585     3B2     0.397686     3B1     0.411167  
       8A1     0.643067     9A1     0.855474     1A2     0.994757  
      10A1     0.995871     4B2     1.119233     4B1     1.132393  
      11A1     1.332893     5B2     1.412366     5B1     1.500354  
      12A1     1.689706     6B1     2.027413     6B2     2.033879  
      13A1     2.547158    14A1     2.777508     2A2     3.583994  
      15A1     3.584721     7B2     3.672821     7B1     3.690546  
      16A1     4.147891  

    Final Occupation by Irrep:
             A1    A2    B1    B2 
    DOCC [     3,    0,    0,    1 ]
    SOCC [     0,    0,    1,    0 ]

  @UHF Final Energy:   -75.40385034841955

   => Energetics <=

    Nuclear Repulsion Energy =              4.4098100889166671
    One-Electron Energy =                -112.6704383255259643
    Two-Electron Energy =                  32.8567778881897539
    Total Energy =                        -75.4038503484195388

  UHF NO Occupations:
  HONO-2 :    2 A1 1.9993029
  HONO-1 :    3 A1 1.9980341
  HONO-0 :    1 B1 1.0000000
  LUNO+0 :    4 A1 0.0019659
  LUNO+1 :    5 A1 0.0006971
  LUNO+2 :    2 B2 0.0005530
  LUNO+3 :    6 A1 0.0000004


Computation Completed


Properties will be evaluated at   0.000000,   0.000000,   0.000000 [a0]

Properties computed using the SCF density matrix

  Nuclear Dipole Moment: [e a0]
     X:     0.0000      Y:     0.0000      Z:     0.8464

  Electronic Dipole Moment: [e a0]
     X:     0.0000      Y:     0.0000      Z:    -0.1527

  Dipole Moment: [e a0]
     X:     0.0000      Y:     0.0000      Z:     0.6936     Total:     0.6936

  Dipole Moment: [D]
     X:     0.0000      Y:     0.0000      Z:     1.7630     Total:     1.7630


*** tstop() called on c5-13.compute.lan at Tue Feb 23 13:21:03 2021
Module time:
	user time   =       0.60 seconds =       0.01 minutes
	system time =       0.01 seconds =       0.00 minutes
	total time  =          1 seconds =       0.02 minutes
Total time:
	user time   =       0.60 seconds =       0.01 minutes
	system time =       0.01 seconds =       0.00 minutes
	total time  =          1 seconds =       0.02 minutes

*** tstart() called on c5-13.compute.lan
*** at Tue Feb 23 13:21:03 2021


         ------------------------------------------------------------
                                   SCF GRAD                          
                          Rob Parrish, Justin Turney,                
                       Andy Simmonett, and Alex Sokolov              
         ------------------------------------------------------------

  ==> Geometry <==

    Molecular point group: c2v
    Full point group: C_inf_v

    Geometry (in Angstrom), charge = 0, multiplicity = 2:

       Center              X                  Y                   Z               Mass       
    ------------   -----------------  -----------------  -----------------  -----------------
         O            0.000000000000     0.000000000000    -0.056903302100    15.994914619570
         H            0.000000000000     0.000000000000     0.903096697900     1.007825032230

  Nuclear repulsion =    4.409810088916667

  ==> Basis Set <==

  Basis Set: AUG-CC-PVDZ
    Blend: AUG-CC-PVDZ
    Number of shells: 14
    Number of basis function: 32
    Number of Cartesian functions: 34
    Spherical Harmonics?: true
    Max angular momentum: 2

  ==> DirectJKGrad: Integral-Direct SCF Gradients <==

    Gradient:                    1
    J tasked:                  Yes
    K tasked:                  Yes
    wK tasked:                  No
    Integrals threads:           1
    Schwarz Cutoff:          0E+00


  -Total Gradient:
     Atom            X                  Y                   Z
    ------   -----------------  -----------------  -----------------
       1        0.000000000000     0.000000000000    -0.005493646981
       2        0.000000000000     0.000000000000     0.005493646981


*** tstop() called on c5-13.compute.lan at Tue Feb 23 13:21:03 2021
Module time:
	user time   =       0.18 seconds =       0.00 minutes
	system time =       0.01 seconds =       0.00 minutes
	total time  =          0 seconds =       0.00 minutes
Total time:
	user time   =       0.79 seconds =       0.01 minutes
	system time =       0.02 seconds =       0.00 minutes
	total time  =          1 seconds =       0.02 minutes

			-----------------------------------------
			 OPTKING 2.0: for geometry optimizations 
			  - R.A. King,  Bethel University        
			-----------------------------------------

	Internal coordinates to be generated automatically.
	Detected frag 1 with atoms:  1 2
	---Fragment 1 Bond Connectivity---
	 1 : 2
	 2 : 1

	---Fragment 1 Geometry and Gradient---
	 O           0.0000000000        0.0000000000       -0.1075316566
	 H           0.0000000000        0.0000000000        1.7066054238
	             0.0000000000        0.0000000000       -0.0054936470
	             0.0000000000        0.0000000000        0.0054936470

	Previous optimization step data not found.  Starting new optimization.

	---Fragment 1 Intrafragment Coordinates---
	 - Coordinate -           - BOHR/RAD -       - ANG/DEG -
	 R(1,2)           =         1.814137	       0.960000

	Current energy   :       -75.4038503484

	Generating empirical Hessian (Schlegel '84) for each fragment.
	Taking RFO optimization step.
	Going to follow RFO solution 1.
	Using RFO vector 1.
	Norm of target step-size    0.00990
	Projected energy change by RFO approximation:        -0.0000053717

	Back-transformation to cartesian coordinates...
	Successfully converged to displaced geometry.

	--- Internal Coordinate Step in ANG or DEG, aJ/ANG or AJ/DEG ---
	 ---------------------------------------------------------------------------
	   Coordinate                Previous        Force       Change         New 
	   ----------                --------       ------       ------       ------
	    1 R(1,2)          =      0.960000    -0.045261    -0.005240     0.954760
	 ---------------------------------------------------------------------------
	Successfully symmetrized geometry.

  ==> Convergence Check <==

  Measures of convergence in internal coordinates in au.
  Criteria marked as inactive (o), active & met (*), and active & unmet ( ).
  --------------------------------------------------------------------------------------------- ~
   Step     Total Energy     Delta E     MAX Force     RMS Force      MAX Disp      RMS Disp    ~
  --------------------------------------------------------------------------------------------- ~
    Convergence Criteria             o    2.00e-06 *    1.00e-06 *    6.00e-06 *    4.00e-06 *  ~
  --------------------------------------------------------------------------------------------- ~
      1     -75.40385035   -7.54e+01 o    5.49e-03      5.49e-03      9.90e-03      9.90e-03    ~
  ---------------------------------------------------------------------------------------------

	Writing optimization data to binary file.
	Structure for next step:
	Cartesian Geometry (in Angstrom)
	    O     0.0000000000   0.0000000000  -0.0542832827
	    H     0.0000000000   0.0000000000   0.9004766751
			--------------------------
			 OPTKING Finished Execution 
			--------------------------

    Structure for next step:
    Molecular point group: c2v
    Full point group: C_inf_v

    Geometry (in Angstrom), charge = 0, multiplicity = 2:

    O       
    H             1          R1

    R1        =    0.9547599615

gradient() will perform analytic gradient computation.

*** tstart() called on c5-13.compute.lan
*** at Tue Feb 23 13:21:03 2021

   => Loading Basis Set <=

    Name: AUG-CC-PVDZ
    Role: ORBITAL
    Keyword: BASIS
    atoms 1 entry O          line   254 file /apps/gb/PSI4/1.4.0/share/psi4/basis/aug-cc-pvdz.gbs 
    atoms 2 entry H          line    40 file /apps/gb/PSI4/1.4.0/share/psi4/basis/aug-cc-pvdz.gbs 


         ---------------------------------------------------------
                                   SCF
               by Justin Turney, Rob Parrish, Andy Simmonett
                          and Daniel G. A. Smith
                              UHF Reference
                        1 Threads,   9536 MiB Core
         ---------------------------------------------------------

  ==> Geometry <==

    Molecular point group: c2v
    Full point group: C_inf_v

    Geometry (in Angstrom), charge = 0, multiplicity = 2:

       Center              X                  Y                   Z               Mass       
    ------------   -----------------  -----------------  -----------------  -----------------
         O            0.000000000000     0.000000000000    -0.056592702630    15.994914619570
         H            0.000000000000     0.000000000000     0.898167258905     1.007825032230

  Running in c2v symmetry.

  Rotational constants: A = ************  B =     19.50563  C =     19.50563 [cm^-1]
  Rotational constants: A = ************  B = 584764.01639  C = 584764.01639 [MHz]
  Nuclear repulsion =    4.434012585271640

  Charge       = 0
  Multiplicity = 2
  Electrons    = 9
  Nalpha       = 5
  Nbeta        = 4

  ==> Algorithm <==

  SCF Algorithm Type is PK.
  DIIS enabled.
  MOM disabled.
  Fractional occupation disabled.
  Guess Type is READ.
  Energy threshold   = 1.00e-10
  Density threshold  = 1.00e-08
  Integral threshold = 0.00e+00

  ==> Primary Basis <==

  Basis Set: AUG-CC-PVDZ
    Blend: AUG-CC-PVDZ
    Number of shells: 14
    Number of basis function: 32
    Number of Cartesian functions: 34
    Spherical Harmonics?: true
    Max angular momentum: 2

   => Loading Basis Set <=

    Name: AUG-CC-PVDZ
    Role: ORBITAL
    Keyword: BASIS
    atoms 1 entry O          line   254 file /apps/gb/PSI4/1.4.0/share/psi4/basis/aug-cc-pvdz.gbs 
    atoms 2 entry H          line    40 file /apps/gb/PSI4/1.4.0/share/psi4/basis/aug-cc-pvdz.gbs 

  Reading orbitals from file 180, no projection.

  ==> Pre-Iterations <==

   -------------------------------------------------------
    Irrep   Nso     Nmo     Nalpha   Nbeta   Ndocc  Nsocc
   -------------------------------------------------------
     A1        16      16       0       0       0       0
     A2         2       2       0       0       0       0
     B1         7       7       0       0       0       0
     B2         7       7       0       0       0       0
   -------------------------------------------------------
    Total      32      32       5       4       4       1
   -------------------------------------------------------

  ==> Integral Setup <==

  Using in-core PK algorithm.
   Calculation information:
      Number of atoms:                   2
      Number of AO shells:              14
      Number of primitives:             32
      Number of atomic orbitals:        34
      Number of basis functions:        32

      Integral cutoff                 1.00e-12
      Number of threads:                 1

  Performing in-core PK
  Using 279312 doubles for integral storage.
  We computed 5565 shell quartets total.
  Whereas there are 5565 unique shell quartets.

  ==> DiskJK: Disk-Based J/K Matrices <==

    J tasked:                  Yes
    K tasked:                  Yes
    wK tasked:                  No
    Memory [MiB]:             7152
    Schwarz Cutoff:          1E-12

    OpenMP threads:              1

  Minimum eigenvalue in the overlap matrix is 3.3160964292E-03.
  Using Symmetric Orthogonalization.

  SCF Guess: Orbitals guess was supplied from a previous computation.

  ==> Iterations <==

                        Total Energy        Delta E     RMS |[F,P]|

   @UHF iter   0:   -75.40814928972934   -7.54081e+01   7.94375e-04 
   @UHF iter   1:   -75.40387510972820    4.27418e-03   9.47891e-05 DIIS
   @UHF iter   2:   -75.40387659035324   -1.48063e-06   2.90769e-05 DIIS
   @UHF iter   3:   -75.40387671155005   -1.21197e-07   7.79418e-06 DIIS
   @UHF iter   4:   -75.40387672997204   -1.84220e-08   3.03073e-06 DIIS
   @UHF iter   5:   -75.40387673397160   -3.99956e-09   1.27638e-06 DIIS
   @UHF iter   6:   -75.40387673508201   -1.11041e-09   4.96024e-07 DIIS
   @UHF iter   7:   -75.40387673526180   -1.79796e-10   1.11454e-07 DIIS
   @UHF iter   8:   -75.40387673526914   -7.33280e-12   1.35494e-08 DIIS
   @UHF iter   9:   -75.40387673526925   -1.13687e-13   2.93668e-09 DIIS
  Energy and wave function converged.


  ==> Post-Iterations <==

   @Spin Contamination Metric:   6.364088942E-03
   @S^2 Expected:                7.500000000E-01
   @S^2 Observed:                7.563640889E-01
   @S   Expected:                5.000000000E-01
   @S   Observed:                5.000000000E-01

    Orbital Energies [Eh]
    ---------------------

    Alpha Occupied:                                                       

       1A1   -20.650223     2A1    -1.397538     3A1    -0.688603  
       1B1    -0.657730     1B2    -0.562252  

    Alpha Virtual:                                                        

       4A1     0.035947     5A1     0.178043     2B1     0.184822  
       2B2     0.197656     6A1     0.226989     7A1     0.319521  
       3B1     0.388152     3B2     0.398653     8A1     0.629512  
       9A1     0.846442     1A2     0.955856    10A1     0.957729  
       4B1     1.086331     4B2     1.116903    11A1     1.318260  
       5B1     1.331381     5B2     1.390209    12A1     1.669416  
       6B1     2.021972     6B2     2.040223    13A1     2.524847  
      14A1     2.762990     2A2     3.483544    15A1     3.483587  
       7B1     3.595114     7B2     3.655316    16A1     4.123352  

    Beta Occupied:                                                        

       1A1   -20.609479     2A1    -1.240712     3A1    -0.643981  
       1B2    -0.512742  

    Beta Virtual:                                                         

       4A1     0.037356     1B1     0.064018     5A1     0.181197  
       2B2     0.201064     6A1     0.233887     2B1     0.256778  
       7A1     0.324564     3B2     0.398390     3B1     0.411981  
       8A1     0.644181     9A1     0.857751     1A2     0.994569  
      10A1     0.995697     4B2     1.119196     4B1     1.132457  
      11A1     1.333328     5B2     1.413313     5B1     1.501102  
      12A1     1.692056     6B1     2.030799     6B2     2.037209  
      13A1     2.557974    14A1     2.778586     2A2     3.583762  
      15A1     3.584496     7B2     3.673714     7B1     3.691409  
      16A1     4.156630  

    Final Occupation by Irrep:
             A1    A2    B1    B2 
    DOCC [     3,    0,    0,    1 ]
    SOCC [     0,    0,    1,    0 ]

  @UHF Final Energy:   -75.40387673526925

   => Energetics <=

    Nuclear Repulsion Energy =              4.4340125852716401
    One-Electron Energy =                -112.7125188641039983
    Two-Electron Energy =                  32.8746295435631026
    Total Energy =                        -75.4038767352692503

  UHF NO Occupations:
  HONO-2 :    2 A1 1.9993249
  HONO-1 :    3 A1 1.9980419
  HONO-0 :    1 B1 1.0000000
  LUNO+0 :    4 A1 0.0019581
  LUNO+1 :    5 A1 0.0006751
  LUNO+2 :    2 B2 0.0005507
  LUNO+3 :    6 A1 0.0000004


Computation Completed


Properties will be evaluated at   0.000000,   0.000000,   0.000000 [a0]

Properties computed using the SCF density matrix

  Nuclear Dipole Moment: [e a0]
     X:     0.0000      Y:     0.0000      Z:     0.8417

  Electronic Dipole Moment: [e a0]
     X:     0.0000      Y:     0.0000      Z:    -0.1497

  Dipole Moment: [e a0]
     X:     0.0000      Y:     0.0000      Z:     0.6920     Total:     0.6920

  Dipole Moment: [D]
     X:     0.0000      Y:     0.0000      Z:     1.7589     Total:     1.7589


*** tstop() called on c5-13.compute.lan at Tue Feb 23 13:21:03 2021
Module time:
	user time   =       0.31 seconds =       0.01 minutes
	system time =       0.01 seconds =       0.00 minutes
	total time  =          0 seconds =       0.00 minutes
Total time:
	user time   =       1.12 seconds =       0.02 minutes
	system time =       0.03 seconds =       0.00 minutes
	total time  =          1 seconds =       0.02 minutes

*** tstart() called on c5-13.compute.lan
*** at Tue Feb 23 13:21:03 2021


         ------------------------------------------------------------
                                   SCF GRAD                          
                          Rob Parrish, Justin Turney,                
                       Andy Simmonett, and Alex Sokolov              
         ------------------------------------------------------------

  ==> Geometry <==

    Molecular point group: c2v
    Full point group: C_inf_v

    Geometry (in Angstrom), charge = 0, multiplicity = 2:

       Center              X                  Y                   Z               Mass       
    ------------   -----------------  -----------------  -----------------  -----------------
         O            0.000000000000     0.000000000000    -0.056592702630    15.994914619570
         H            0.000000000000     0.000000000000     0.898167258905     1.007825032230

  Nuclear repulsion =    4.434012585271640

  ==> Basis Set <==

  Basis Set: AUG-CC-PVDZ
    Blend: AUG-CC-PVDZ
    Number of shells: 14
    Number of basis function: 32
    Number of Cartesian functions: 34
    Spherical Harmonics?: true
    Max angular momentum: 2

  ==> DirectJKGrad: Integral-Direct SCF Gradients <==

    Gradient:                    1
    J tasked:                  Yes
    K tasked:                  Yes
    wK tasked:                  No
    Integrals threads:           1
    Schwarz Cutoff:          0E+00


  -Total Gradient:
     Atom            X                  Y                   Z
    ------   -----------------  -----------------  -----------------
       1        0.000000000000     0.000000000000     0.000198329708
       2        0.000000000000     0.000000000000    -0.000198329708


*** tstop() called on c5-13.compute.lan at Tue Feb 23 13:21:04 2021
Module time:
	user time   =       0.18 seconds =       0.00 minutes
	system time =       0.02 seconds =       0.00 minutes
	total time  =          1 seconds =       0.02 minutes
Total time:
	user time   =       1.30 seconds =       0.02 minutes
	system time =       0.05 seconds =       0.00 minutes
	total time  =          2 seconds =       0.03 minutes

			-----------------------------------------
			 OPTKING 2.0: for geometry optimizations 
			  - R.A. King,  Bethel University        
			-----------------------------------------

	Previous internal coordinate definitions found.
	---Fragment 1 Geometry and Gradient---
	 O           0.0000000000        0.0000000000       -0.1069447087
	 H           0.0000000000        0.0000000000        1.6972901342
	             0.0000000000        0.0000000000        0.0001983297
	             0.0000000000        0.0000000000       -0.0001983297

	---Fragment 1 Intrafragment Coordinates---
	 - Coordinate -           - BOHR/RAD -       - ANG/DEG -
	 R(1,2)           =         1.804235	       0.954760

	Current energy   :       -75.4038767353

	Energy change for the previous step:
		Projected    :        -0.0000053717
		Actual       :        -0.0000263868
	Energy ratio indicates good step: Trust radius increased to 1.000e+00.


	Performing BFGS update.
	Previous computed or guess Hessian on step 1.
	Steps to be used in Hessian update: 1
	Taking RFO optimization step.
	Going to follow RFO solution 1.
	Using RFO vector 1.
	Norm of target step-size    0.00035
	Projected energy change by RFO approximation:        -0.0000000089

	Back-transformation to cartesian coordinates...
	Successfully converged to displaced geometry.

	--- Internal Coordinate Step in ANG or DEG, aJ/ANG or AJ/DEG ---
	 ---------------------------------------------------------------------------
	   Coordinate                Previous        Force       Change         New 
	   ----------                --------       ------       ------       ------
	    1 R(1,2)          =      0.954760     0.001634     0.000183     0.954943
	 ---------------------------------------------------------------------------
	Successfully symmetrized geometry.

  ==> Convergence Check <==

  Measures of convergence in internal coordinates in au.
  Criteria marked as inactive (o), active & met (*), and active & unmet ( ).
  ---------------------------------------------------------------------------------------------
   Step     Total Energy     Delta E     MAX Force     RMS Force      MAX Disp      RMS Disp   
  ---------------------------------------------------------------------------------------------
    Convergence Criteria             o    2.00e-06 *    1.00e-06 *    6.00e-06 *    4.00e-06 *
  ---------------------------------------------------------------------------------------------
      2     -75.40387674   -2.64e-05 o    1.98e-04      1.98e-04      3.45e-04      3.45e-04    ~
  ---------------------------------------------------------------------------------------------

	Writing optimization data to binary file.
	Structure for next step:
	Cartesian Geometry (in Angstrom)
	    O     0.0000000000   0.0000000000  -0.0566839936
	    H     0.0000000000   0.0000000000   0.8982585466
			--------------------------
			 OPTKING Finished Execution 
			--------------------------

    Structure for next step:
    Molecular point group: c2v
    Full point group: C_inf_v

    Geometry (in Angstrom), charge = 0, multiplicity = 2:

    O       
    H             1          R1

    R1        =    0.9549425440

gradient() will perform analytic gradient computation.

*** tstart() called on c5-13.compute.lan
*** at Tue Feb 23 13:21:04 2021

   => Loading Basis Set <=

    Name: AUG-CC-PVDZ
    Role: ORBITAL
    Keyword: BASIS
    atoms 1 entry O          line   254 file /apps/gb/PSI4/1.4.0/share/psi4/basis/aug-cc-pvdz.gbs 
    atoms 2 entry H          line    40 file /apps/gb/PSI4/1.4.0/share/psi4/basis/aug-cc-pvdz.gbs 


         ---------------------------------------------------------
                                   SCF
               by Justin Turney, Rob Parrish, Andy Simmonett
                          and Daniel G. A. Smith
                              UHF Reference
                        1 Threads,   9536 MiB Core
         ---------------------------------------------------------

  ==> Geometry <==

    Molecular point group: c2v
    Full point group: C_inf_v

    Geometry (in Angstrom), charge = 0, multiplicity = 2:

       Center              X                  Y                   Z               Mass       
    ------------   -----------------  -----------------  -----------------  -----------------
         O            0.000000000000     0.000000000000    -0.056603525073    15.994914619570
         H            0.000000000000     0.000000000000     0.898339018934     1.007825032230

  Running in c2v symmetry.

  Rotational constants: A = ************  B =     19.49817  C =     19.49817 [cm^-1]
  Rotational constants: A = ************  B = 584540.42712  C = 584540.42712 [MHz]
  Nuclear repulsion =    4.433164813868747

  Charge       = 0
  Multiplicity = 2
  Electrons    = 9
  Nalpha       = 5
  Nbeta        = 4

  ==> Algorithm <==

  SCF Algorithm Type is PK.
  DIIS enabled.
  MOM disabled.
  Fractional occupation disabled.
  Guess Type is READ.
  Energy threshold   = 1.00e-10
  Density threshold  = 1.00e-08
  Integral threshold = 0.00e+00

  ==> Primary Basis <==

  Basis Set: AUG-CC-PVDZ
    Blend: AUG-CC-PVDZ
    Number of shells: 14
    Number of basis function: 32
    Number of Cartesian functions: 34
    Spherical Harmonics?: true
    Max angular momentum: 2

   => Loading Basis Set <=

    Name: AUG-CC-PVDZ
    Role: ORBITAL
    Keyword: BASIS
    atoms 1 entry O          line   254 file /apps/gb/PSI4/1.4.0/share/psi4/basis/aug-cc-pvdz.gbs 
    atoms 2 entry H          line    40 file /apps/gb/PSI4/1.4.0/share/psi4/basis/aug-cc-pvdz.gbs 

  Reading orbitals from file 180, no projection.

  ==> Pre-Iterations <==

   -------------------------------------------------------
    Irrep   Nso     Nmo     Nalpha   Nbeta   Ndocc  Nsocc
   -------------------------------------------------------
     A1        16      16       0       0       0       0
     A2         2       2       0       0       0       0
     B1         7       7       0       0       0       0
     B2         7       7       0       0       0       0
   -------------------------------------------------------
    Total      32      32       5       4       4       1
   -------------------------------------------------------

  ==> Integral Setup <==

  Using in-core PK algorithm.
   Calculation information:
      Number of atoms:                   2
      Number of AO shells:              14
      Number of primitives:             32
      Number of atomic orbitals:        34
      Number of basis functions:        32

      Integral cutoff                 1.00e-12
      Number of threads:                 1

  Performing in-core PK
  Using 279312 doubles for integral storage.
  We computed 5565 shell quartets total.
  Whereas there are 5565 unique shell quartets.

  ==> DiskJK: Disk-Based J/K Matrices <==

    J tasked:                  Yes
    K tasked:                  Yes
    wK tasked:                  No
    Memory [MiB]:             7152
    Schwarz Cutoff:          1E-12

    OpenMP threads:              1

  Minimum eigenvalue in the overlap matrix is 3.3172595332E-03.
  Using Symmetric Orthogonalization.

  SCF Guess: Orbitals guess was supplied from a previous computation.

  ==> Iterations <==

                        Total Energy        Delta E     RMS |[F,P]|

   @UHF iter   0:   -75.40372728285307   -7.54037e+01   2.78950e-05 
   @UHF iter   1:   -75.40387676688849   -1.49484e-04   3.32031e-06 DIIS
   @UHF iter   2:   -75.40387676870165   -1.81316e-09   1.02270e-06 DIIS
   @UHF iter   3:   -75.40387676885089   -1.49242e-10   2.71878e-07 DIIS
   @UHF iter   4:   -75.40387676887326   -2.23679e-11   1.04835e-07 DIIS
   @UHF iter   5:   -75.40387676887804   -4.77485e-12   4.39429e-08 DIIS
   @UHF iter   6:   -75.40387676887931   -1.27898e-12   1.71934e-08 DIIS
   @UHF iter   7:   -75.40387676887951   -1.98952e-13   3.88927e-09 DIIS
  Energy and wave function converged.


  ==> Post-Iterations <==

   @Spin Contamination Metric:   6.366271517E-03
   @S^2 Expected:                7.500000000E-01
   @S^2 Observed:                7.563662715E-01
   @S   Expected:                5.000000000E-01
   @S   Observed:                5.000000000E-01

    Orbital Energies [Eh]
    ---------------------

    Alpha Occupied:                                                       

       1A1   -20.650238     2A1    -1.397482     3A1    -0.688550  
       1B1    -0.657723     1B2    -0.562244  

    Alpha Virtual:                                                        

       4A1     0.035945     5A1     0.178046     2B1     0.184826  
       2B2     0.197661     6A1     0.226974     7A1     0.319486  
       3B1     0.388131     3B2     0.398630     8A1     0.629473  
       9A1     0.846373     1A2     0.955863    10A1     0.957735  
       4B1     1.086335     4B2     1.116905    11A1     1.318245  
       5B1     1.331346     5B2     1.390175    12A1     1.669329  
       6B1     2.021863     6B2     2.040110    13A1     2.524481  
      14A1     2.762947     2A2     3.483552    15A1     3.483593  
       7B1     3.595079     7B2     3.655281    16A1     4.123038  

    Beta Occupied:                                                        

       1A1   -20.609492     2A1    -1.240644     3A1    -0.643932  
       1B2    -0.512732  

    Beta Virtual:                                                         

       4A1     0.037354     1B1     0.064023     5A1     0.181203  
       2B2     0.201070     6A1     0.233872     2B1     0.256790  
       7A1     0.324530     3B2     0.398366     3B1     0.411953  
       8A1     0.644143     9A1     0.857670     1A2     0.994575  
      10A1     0.995703     4B2     1.119197     4B1     1.132455  
      11A1     1.333313     5B2     1.413280     5B1     1.501076  
      12A1     1.691973     6B1     2.030680     6B2     2.037093  
      13A1     2.557600    14A1     2.778545     2A2     3.583770  
      15A1     3.584504     7B2     3.673683     7B1     3.691378  
      16A1     4.156325  

    Final Occupation by Irrep:
             A1    A2    B1    B2 
    DOCC [     3,    0,    0,    1 ]
    SOCC [     0,    0,    1,    0 ]

  @UHF Final Energy:   -75.40387676887951

   => Energetics <=

    Nuclear Repulsion Energy =              4.4331648138687472
    One-Electron Energy =                -112.7110465771678776
    Two-Electron Energy =                  32.8740049944196215
    Total Energy =                        -75.4038767688795133

  UHF NO Occupations:
  HONO-2 :    2 A1 1.9993241
  HONO-1 :    3 A1 1.9980416
  HONO-0 :    1 B1 1.0000000
  LUNO+0 :    4 A1 0.0019584
  LUNO+1 :    5 A1 0.0006759
  LUNO+2 :    2 B2 0.0005507
  LUNO+3 :    6 A1 0.0000004


Computation Completed


Properties will be evaluated at   0.000000,   0.000000,   0.000000 [a0]

Properties computed using the SCF density matrix

  Nuclear Dipole Moment: [e a0]
     X:     0.0000      Y:     0.0000      Z:     0.8419

  Electronic Dipole Moment: [e a0]
     X:     0.0000      Y:     0.0000      Z:    -0.1498

  Dipole Moment: [e a0]
     X:     0.0000      Y:     0.0000      Z:     0.6921     Total:     0.6921

  Dipole Moment: [D]
     X:     0.0000      Y:     0.0000      Z:     1.7590     Total:     1.7590


*** tstop() called on c5-13.compute.lan at Tue Feb 23 13:21:04 2021
Module time:
	user time   =       0.30 seconds =       0.00 minutes
	system time =       0.01 seconds =       0.00 minutes
	total time  =          0 seconds =       0.00 minutes
Total time:
	user time   =       1.62 seconds =       0.03 minutes
	system time =       0.06 seconds =       0.00 minutes
	total time  =          2 seconds =       0.03 minutes

*** tstart() called on c5-13.compute.lan
*** at Tue Feb 23 13:21:04 2021


         ------------------------------------------------------------
                                   SCF GRAD                          
                          Rob Parrish, Justin Turney,                
                       Andy Simmonett, and Alex Sokolov              
         ------------------------------------------------------------

  ==> Geometry <==

    Molecular point group: c2v
    Full point group: C_inf_v

    Geometry (in Angstrom), charge = 0, multiplicity = 2:

       Center              X                  Y                   Z               Mass       
    ------------   -----------------  -----------------  -----------------  -----------------
         O            0.000000000000     0.000000000000    -0.056603525073    15.994914619570
         H            0.000000000000     0.000000000000     0.898339018934     1.007825032230

  Nuclear repulsion =    4.433164813868747

  ==> Basis Set <==

  Basis Set: AUG-CC-PVDZ
    Blend: AUG-CC-PVDZ
    Number of shells: 14
    Number of basis function: 32
    Number of Cartesian functions: 34
    Spherical Harmonics?: true
    Max angular momentum: 2

  ==> DirectJKGrad: Integral-Direct SCF Gradients <==

    Gradient:                    1
    J tasked:                  Yes
    K tasked:                  Yes
    wK tasked:                  No
    Integrals threads:           1
    Schwarz Cutoff:          0E+00


  -Total Gradient:
     Atom            X                  Y                   Z
    ------   -----------------  -----------------  -----------------
       1        0.000000000000     0.000000000000    -0.000003462975
       2        0.000000000000     0.000000000000     0.000003462975


*** tstop() called on c5-13.compute.lan at Tue Feb 23 13:21:04 2021
Module time:
	user time   =       0.19 seconds =       0.00 minutes
	system time =       0.01 seconds =       0.00 minutes
	total time  =          0 seconds =       0.00 minutes
Total time:
	user time   =       1.81 seconds =       0.03 minutes
	system time =       0.07 seconds =       0.00 minutes
	total time  =          2 seconds =       0.03 minutes

			-----------------------------------------
			 OPTKING 2.0: for geometry optimizations 
			  - R.A. King,  Bethel University        
			-----------------------------------------

	Previous internal coordinate definitions found.
	---Fragment 1 Geometry and Gradient---
	 O           0.0000000000        0.0000000000       -0.1069651601
	 H           0.0000000000        0.0000000000        1.6976147136
	             0.0000000000        0.0000000000       -0.0000034630
	             0.0000000000        0.0000000000        0.0000034630

	---Fragment 1 Intrafragment Coordinates---
	 - Coordinate -           - BOHR/RAD -       - ANG/DEG -
	 R(1,2)           =         1.804580	       0.954943

	Current energy   :       -75.4038767689

	Energy change for the previous step:
		Projected    :        -0.0000000089
		Actual       :        -0.0000000336

	Performing BFGS update.
	Previous computed or guess Hessian on step 1.
	Denominators (dg)(dq) or (dq)(dq) are very small.
	 Skipping Hessian update for step 2.
	Steps to be used in Hessian update: 1
	Taking RFO optimization step.
	Going to follow RFO solution 1.
	Using RFO vector 1.
	Norm of target step-size    0.00001
	Projected energy change by RFO approximation:        -0.0000000000

	Back-transformation to cartesian coordinates...
	Successfully converged to displaced geometry.

	--- Internal Coordinate Step in ANG or DEG, aJ/ANG or AJ/DEG ---
	 ---------------------------------------------------------------------------
	   Coordinate                Previous        Force       Change         New 
	   ----------                --------       ------       ------       ------
	    1 R(1,2)          =      0.954943    -0.000029    -0.000003     0.954939
	 ---------------------------------------------------------------------------
	Successfully symmetrized geometry.

  ==> Convergence Check <==

  Measures of convergence in internal coordinates in au.
  Criteria marked as inactive (o), active & met (*), and active & unmet ( ).
  ---------------------------------------------------------------------------------------------
   Step     Total Energy     Delta E     MAX Force     RMS Force      MAX Disp      RMS Disp   
  ---------------------------------------------------------------------------------------------
    Convergence Criteria             o    2.00e-06 *    1.00e-06 *    6.00e-06 *    4.00e-06 *
  ---------------------------------------------------------------------------------------------
      3     -75.40387677   -3.36e-08 o    3.46e-06      3.46e-06      6.03e-06      6.03e-06    ~
  ---------------------------------------------------------------------------------------------

	Writing optimization data to binary file.
	Structure for next step:
	Cartesian Geometry (in Angstrom)
	    O     0.0000000000   0.0000000000  -0.0566019298
	    H     0.0000000000   0.0000000000   0.8983374204
			--------------------------
			 OPTKING Finished Execution 
			--------------------------

    Structure for next step:
    Molecular point group: c2v
    Full point group: C_inf_v

    Geometry (in Angstrom), charge = 0, multiplicity = 2:

    O       
    H             1          R1

    R1        =    0.9549393540

gradient() will perform analytic gradient computation.

*** tstart() called on c5-13.compute.lan
*** at Tue Feb 23 13:21:04 2021

   => Loading Basis Set <=

    Name: AUG-CC-PVDZ
    Role: ORBITAL
    Keyword: BASIS
    atoms 1 entry O          line   254 file /apps/gb/PSI4/1.4.0/share/psi4/basis/aug-cc-pvdz.gbs 
    atoms 2 entry H          line    40 file /apps/gb/PSI4/1.4.0/share/psi4/basis/aug-cc-pvdz.gbs 


         ---------------------------------------------------------
                                   SCF
               by Justin Turney, Rob Parrish, Andy Simmonett
                          and Daniel G. A. Smith
                              UHF Reference
                        1 Threads,   9536 MiB Core
         ---------------------------------------------------------

  ==> Geometry <==

    Molecular point group: c2v
    Full point group: C_inf_v

    Geometry (in Angstrom), charge = 0, multiplicity = 2:

       Center              X                  Y                   Z               Mass       
    ------------   -----------------  -----------------  -----------------  -----------------
         O            0.000000000000     0.000000000000    -0.056603335986    15.994914619570
         H            0.000000000000     0.000000000000     0.898336017992     1.007825032230

  Running in c2v symmetry.

  Rotational constants: A = ************  B =     19.49830  C =     19.49830 [cm^-1]
  Rotational constants: A = ************  B = 584544.33251  C = 584544.33251 [MHz]
  Nuclear repulsion =    4.433179623106224

  Charge       = 0
  Multiplicity = 2
  Electrons    = 9
  Nalpha       = 5
  Nbeta        = 4

  ==> Algorithm <==

  SCF Algorithm Type is PK.
  DIIS enabled.
  MOM disabled.
  Fractional occupation disabled.
  Guess Type is READ.
  Energy threshold   = 1.00e-10
  Density threshold  = 1.00e-08
  Integral threshold = 0.00e+00

  ==> Primary Basis <==

  Basis Set: AUG-CC-PVDZ
    Blend: AUG-CC-PVDZ
    Number of shells: 14
    Number of basis function: 32
    Number of Cartesian functions: 34
    Spherical Harmonics?: true
    Max angular momentum: 2

   => Loading Basis Set <=

    Name: AUG-CC-PVDZ
    Role: ORBITAL
    Keyword: BASIS
    atoms 1 entry O          line   254 file /apps/gb/PSI4/1.4.0/share/psi4/basis/aug-cc-pvdz.gbs 
    atoms 2 entry H          line    40 file /apps/gb/PSI4/1.4.0/share/psi4/basis/aug-cc-pvdz.gbs 

  Reading orbitals from file 180, no projection.

  ==> Pre-Iterations <==

   -------------------------------------------------------
    Irrep   Nso     Nmo     Nalpha   Nbeta   Ndocc  Nsocc
   -------------------------------------------------------
     A1        16      16       0       0       0       0
     A2         2       2       0       0       0       0
     B1         7       7       0       0       0       0
     B2         7       7       0       0       0       0
   -------------------------------------------------------
    Total      32      32       5       4       4       1
   -------------------------------------------------------

  ==> Integral Setup <==

  Using in-core PK algorithm.
   Calculation information:
      Number of atoms:                   2
      Number of AO shells:              14
      Number of primitives:             32
      Number of atomic orbitals:        34
      Number of basis functions:        32

      Integral cutoff                 1.00e-12
      Number of threads:                 1

  Performing in-core PK
  Using 279312 doubles for integral storage.
  We computed 5565 shell quartets total.
  Whereas there are 5565 unique shell quartets.

  ==> DiskJK: Disk-Based J/K Matrices <==

    J tasked:                  Yes
    K tasked:                  Yes
    wK tasked:                  No
    Memory [MiB]:             7152
    Schwarz Cutoff:          1E-12

    OpenMP threads:              1

  Minimum eigenvalue in the overlap matrix is 3.3172392046E-03.
  Using Symmetric Orthogonalization.

  SCF Guess: Orbitals guess was supplied from a previous computation.

  ==> Iterations <==

                        Total Energy        Delta E     RMS |[F,P]|

   @UHF iter   0:   -75.40387938029195   -7.54039e+01   4.87255e-07 
   @UHF iter   1:   -75.40387676888921    2.61140e-06   5.79999e-08 DIIS
   @UHF iter   2:   -75.40387676888983   -6.25278e-13   1.78478e-08 DIIS
   @UHF iter   3:   -75.40387676888987   -4.26326e-14   4.74303e-09 DIIS
  Energy and wave function converged.


  ==> Post-Iterations <==

   @Spin Contamination Metric:   6.366240711E-03
   @S^2 Expected:                7.500000000E-01
   @S^2 Observed:                7.563662407E-01
   @S   Expected:                5.000000000E-01
   @S   Observed:                5.000000000E-01

    Orbital Energies [Eh]
    ---------------------

    Alpha Occupied:                                                       

       1A1   -20.650237     2A1    -1.397483     3A1    -0.688551  
       1B1    -0.657723     1B2    -0.562244  

    Alpha Virtual:                                                        

       4A1     0.035945     5A1     0.178046     2B1     0.184826  
       2B2     0.197661     6A1     0.226974     7A1     0.319486  
       3B1     0.388131     3B2     0.398630     8A1     0.629473  
       9A1     0.846374     1A2     0.955863    10A1     0.957735  
       4B1     1.086334     4B2     1.116905    11A1     1.318245  
       5B1     1.331347     5B2     1.390175    12A1     1.669331  
       6B1     2.021865     6B2     2.040112    13A1     2.524488  
      14A1     2.762948     2A2     3.483552    15A1     3.483593  
       7B1     3.595080     7B2     3.655282    16A1     4.123043  

    Beta Occupied:                                                        

       1A1   -20.609492     2A1    -1.240646     3A1    -0.643933  
       1B2    -0.512732  

    Beta Virtual:                                                         

       4A1     0.037354     1B1     0.064023     5A1     0.181203  
       2B2     0.201070     6A1     0.233872     2B1     0.256789  
       7A1     0.324530     3B2     0.398366     3B1     0.411953  
       8A1     0.644144     9A1     0.857672     1A2     0.994575  
      10A1     0.995703     4B2     1.119197     4B1     1.132455  
      11A1     1.333313     5B2     1.413281     5B1     1.501076  
      12A1     1.691974     6B1     2.030682     6B2     2.037095  
      13A1     2.557606    14A1     2.778545     2A2     3.583770  
      15A1     3.584504     7B2     3.673684     7B1     3.691379  
      16A1     4.156330  

    Final Occupation by Irrep:
             A1    A2    B1    B2 
    DOCC [     3,    0,    0,    1 ]
    SOCC [     0,    0,    1,    0 ]

  @UHF Final Energy:   -75.40387676888987

   => Energetics <=

    Nuclear Repulsion Energy =              4.4331796231062244
    One-Electron Energy =                -112.7110719985765286
    Two-Electron Energy =                  32.8740156065804285
    Total Energy =                        -75.4038767688898730

  UHF NO Occupations:
  HONO-2 :    2 A1 1.9993242
  HONO-1 :    3 A1 1.9980416
  HONO-0 :    1 B1 1.0000000
  LUNO+0 :    4 A1 0.0019584
  LUNO+1 :    5 A1 0.0006758
  LUNO+2 :    2 B2 0.0005507
  LUNO+3 :    6 A1 0.0000004


Computation Completed


Properties will be evaluated at   0.000000,   0.000000,   0.000000 [a0]

Properties computed using the SCF density matrix

  Nuclear Dipole Moment: [e a0]
     X:     0.0000      Y:     0.0000      Z:     0.8419

  Electronic Dipole Moment: [e a0]
     X:     0.0000      Y:     0.0000      Z:    -0.1498

  Dipole Moment: [e a0]
     X:     0.0000      Y:     0.0000      Z:     0.6921     Total:     0.6921

  Dipole Moment: [D]
     X:     0.0000      Y:     0.0000      Z:     1.7590     Total:     1.7590


*** tstop() called on c5-13.compute.lan at Tue Feb 23 13:21:05 2021
Module time:
	user time   =       0.29 seconds =       0.00 minutes
	system time =       0.01 seconds =       0.00 minutes
	total time  =          1 seconds =       0.02 minutes
Total time:
	user time   =       2.11 seconds =       0.04 minutes
	system time =       0.08 seconds =       0.00 minutes
	total time  =          3 seconds =       0.05 minutes

*** tstart() called on c5-13.compute.lan
*** at Tue Feb 23 13:21:05 2021


         ------------------------------------------------------------
                                   SCF GRAD                          
                          Rob Parrish, Justin Turney,                
                       Andy Simmonett, and Alex Sokolov              
         ------------------------------------------------------------

  ==> Geometry <==

    Molecular point group: c2v
    Full point group: C_inf_v

    Geometry (in Angstrom), charge = 0, multiplicity = 2:

       Center              X                  Y                   Z               Mass       
    ------------   -----------------  -----------------  -----------------  -----------------
         O            0.000000000000     0.000000000000    -0.056603335986    15.994914619570
         H            0.000000000000     0.000000000000     0.898336017992     1.007825032230

  Nuclear repulsion =    4.433179623106224

  ==> Basis Set <==

  Basis Set: AUG-CC-PVDZ
    Blend: AUG-CC-PVDZ
    Number of shells: 14
    Number of basis function: 32
    Number of Cartesian functions: 34
    Spherical Harmonics?: true
    Max angular momentum: 2

  ==> DirectJKGrad: Integral-Direct SCF Gradients <==

    Gradient:                    1
    J tasked:                  Yes
    K tasked:                  Yes
    wK tasked:                  No
    Integrals threads:           1
    Schwarz Cutoff:          0E+00


  -Total Gradient:
     Atom            X                  Y                   Z
    ------   -----------------  -----------------  -----------------
       1        0.000000000000     0.000000000000     0.000000068825
       2        0.000000000000     0.000000000000    -0.000000068825


*** tstop() called on c5-13.compute.lan at Tue Feb 23 13:21:05 2021
Module time:
	user time   =       0.19 seconds =       0.00 minutes
	system time =       0.01 seconds =       0.00 minutes
	total time  =          0 seconds =       0.00 minutes
Total time:
	user time   =       2.30 seconds =       0.04 minutes
	system time =       0.09 seconds =       0.00 minutes
	total time  =          3 seconds =       0.05 minutes

			-----------------------------------------
			 OPTKING 2.0: for geometry optimizations 
			  - R.A. King,  Bethel University        
			-----------------------------------------

	Previous internal coordinate definitions found.
	---Fragment 1 Geometry and Gradient---
	 O           0.0000000000        0.0000000000       -0.1069648028
	 H           0.0000000000        0.0000000000        1.6976090426
	             0.0000000000        0.0000000000        0.0000000688
	             0.0000000000        0.0000000000       -0.0000000688

	---Fragment 1 Intrafragment Coordinates---
	 - Coordinate -           - BOHR/RAD -       - ANG/DEG -
	 R(1,2)           =         1.804574	       0.954939

	Current energy   :       -75.4038767689

	Energy change for the previous step:
		Projected    :        -0.0000000000
		Actual       :        -0.0000000000

	Performing BFGS update.
	Previous computed or guess Hessian on step 1.
	Denominators (dg)(dq) or (dq)(dq) are very small.
	 Skipping Hessian update for step 3.
	Denominators (dg)(dq) or (dq)(dq) are very small.
	 Skipping Hessian update for step 2.
	Steps to be used in Hessian update: 1
	Taking RFO optimization step.
	Going to follow RFO solution 1.
	Using RFO vector 1.
	Norm of target step-size    0.00000
	Projected energy change by RFO approximation:        -0.0000000000

	Back-transformation to cartesian coordinates...
	Successfully converged to displaced geometry.

	--- Internal Coordinate Step in ANG or DEG, aJ/ANG or AJ/DEG ---
	 ---------------------------------------------------------------------------
	   Coordinate                Previous        Force       Change         New 
	   ----------                --------       ------       ------       ------
	    1 R(1,2)          =      0.954939     0.000001     0.000000     0.954939
	 ---------------------------------------------------------------------------
	Successfully symmetrized geometry.

  ==> Convergence Check <==

  Measures of convergence in internal coordinates in au.
  Criteria marked as inactive (o), active & met (*), and active & unmet ( ).
  ---------------------------------------------------------------------------------------------
   Step     Total Energy     Delta E     MAX Force     RMS Force      MAX Disp      RMS Disp   
  ---------------------------------------------------------------------------------------------
    Convergence Criteria             o    2.00e-06 *    1.00e-06 *    6.00e-06 *    4.00e-06 *
  ---------------------------------------------------------------------------------------------
      4     -75.40387677   -1.04e-11 o    6.88e-08 *    6.88e-08 *    1.20e-07 *    1.20e-07 *  ~
  ---------------------------------------------------------------------------------------------


  **** Optimization is complete! (in 4 steps) ****

  ==> Optimization Summary <==

  Measures of convergence in internal coordinates in au.
  --------------------------------------------------------------------------------------------------------------- ~
   Step         Total Energy             Delta E       MAX Force       RMS Force        MAX Disp        RMS Disp  ~
  --------------------------------------------------------------------------------------------------------------- ~
      1     -75.403850348420    -75.403850348420      0.00549365      0.00549365      0.00990224      0.00990224  ~
      2     -75.403876735269     -0.000026386850      0.00019833      0.00019833      0.00034503      0.00034503  ~
      3     -75.403876768880     -0.000000033610      0.00000346      0.00000346      0.00000603      0.00000603  ~
      4     -75.403876768890     -0.000000000010      0.00000007      0.00000007      0.00000012      0.00000012  ~
  --------------------------------------------------------------------------------------------------------------- ~

	Writing optimization data to binary file.
	Final energy is    -75.4038767688899
	Final (previous) structure:
	Cartesian Geometry (in Angstrom)
	    O     0.0000000000   0.0000000000  -0.0566033358
	    H     0.0000000000   0.0000000000   0.8983360145
	Saving final (previous) structure.
			--------------------------
			 OPTKING Finished Execution 
			--------------------------

    Final optimized geometry and variables:
    Molecular point group: c2v
    Full point group: C_inf_v

    Geometry (in Angstrom), charge = 0, multiplicity = 2:

    O       
    H             1          R1

    R1        =    0.9549393540

	Removing binary optimization data file.
	Cleaning optimization helper files.

    Psi4 stopped on: Tuesday, 23 February 2021 01:21PM
    Psi4 wall time for execution: 0:00:02.48

*** Psi4 exiting successfully. Buy a developer a beer!
