
    -----------------------------------------------------------------------
          Psi4: An Open-Source Ab Initio Electronic Structure Package
                               Psi4 1.4a2.dev191 

                         Git: Rev {master} 0ab5346 


    R. M. Parrish, L. A. Burns, D. G. A. Smith, A. C. Simmonett,
    A. E. DePrince III, E. G. Hohenstein, U. Bozkaya, A. Yu. Sokolov,
    R. Di Remigio, R. M. Richard, J. F. Gonthier, A. M. James,
    H. R. McAlexander, A. Kumar, M. Saitow, X. Wang, B. P. Pritchard,
    P. Verma, H. F. Schaefer III, K. Patkowski, R. A. King, E. F. Valeev,
    F. A. Evangelista, J. M. Turney, T. D. Crawford, and C. D. Sherrill,
    J. Chem. Theory Comput. 13(7) pp 3185--3197 (2017).
    (doi: 10.1021/acs.jctc.7b00174)


                         Additional Contributions by
    P. Kraus, H. Kruse, M. H. Lechner, M. C. Schieber, R. A. Shaw,
    A. Alenaizan, R. Galvelis, Z. L. Glick, S. Lehtola, and J. P. Misiewicz

    -----------------------------------------------------------------------


    Psi4 started on: Tuesday, 23 February 2021 01:25PM

    Process ID: 66072
    Host:       c4-9.compute.lan
    PSIDATADIR: /apps/gb/PSI4/1.4.0/share/psi4
    Memory:     500.0 MiB
    Threads:    1
    
  ==> Input File <==

--------------------------------------------------------------------------
memory 10 GB
molecule {
0 2
O
H 1 R1
R1 = 0.9478992047
}
set {
basis aug-cc-pvtz
e_convergence 10
g_convergence gau_verytight
reference uhf
scf_type pk
mp2_type conv
}

optimize("mp2")

--------------------------------------------------------------------------

  Memory set to   9.313 GiB by Python driver.
gradient() will perform analytic gradient computation.

*** tstart() called on c4-9.compute.lan
*** at Tue Feb 23 13:25:44 2021

   => Loading Basis Set <=

    Name: AUG-CC-PVTZ
    Role: ORBITAL
    Keyword: BASIS
    atoms 1 entry O          line   331 file /apps/gb/PSI4/1.4.0/share/psi4/basis/aug-cc-pvtz.gbs 
    atoms 2 entry H          line    40 file /apps/gb/PSI4/1.4.0/share/psi4/basis/aug-cc-pvtz.gbs 


         ---------------------------------------------------------
                                   SCF
               by Justin Turney, Rob Parrish, Andy Simmonett
                          and Daniel G. A. Smith
                              UHF Reference
                        1 Threads,   9536 MiB Core
         ---------------------------------------------------------

  ==> Geometry <==

    Molecular point group: c2v
    Full point group: C_inf_v

    Geometry (in Angstrom), charge = 0, multiplicity = 2:

       Center              X                  Y                   Z               Mass       
    ------------   -----------------  -----------------  -----------------  -----------------
         O            0.000000000000     0.000000000000    -0.056186036256    15.994914619570
         H            0.000000000000     0.000000000000     0.891713168444     1.007825032230

  Running in c2v symmetry.

  Rotational constants: A = ************  B =     19.78901  C =     19.78901 [cm^-1]
  Rotational constants: A = ************  B = 593259.52428  C = 593259.52428 [MHz]
  Nuclear repulsion =    4.466105324668810

  Charge       = 0
  Multiplicity = 2
  Electrons    = 9
  Nalpha       = 5
  Nbeta        = 4

  ==> Algorithm <==

  SCF Algorithm Type is PK.
  DIIS enabled.
  MOM disabled.
  Fractional occupation disabled.
  Guess Type is SAD.
  Energy threshold   = 1.00e-10
  Density threshold  = 1.00e-10
  Integral threshold = 0.00e+00

  ==> Primary Basis <==

  Basis Set: AUG-CC-PVTZ
    Blend: AUG-CC-PVTZ
    Number of shells: 23
    Number of basis function: 69
    Number of Cartesian functions: 80
    Spherical Harmonics?: true
    Max angular momentum: 3

  ==> Pre-Iterations <==

   -------------------------------------------------------
    Irrep   Nso     Nmo     Nalpha   Nbeta   Ndocc  Nsocc
   -------------------------------------------------------
     A1        30      30       0       0       0       0
     A2         7       7       0       0       0       0
     B1        16      16       0       0       0       0
     B2        16      16       0       0       0       0
   -------------------------------------------------------
    Total      69      69       5       4       4       1
   -------------------------------------------------------

  ==> Integral Setup <==

  Using in-core PK algorithm.
   Calculation information:
      Number of atoms:                   2
      Number of AO shells:              23
      Number of primitives:             41
      Number of atomic orbitals:        80
      Number of basis functions:        69

      Integral cutoff                 1.00e-12
      Number of threads:                 1

  Performing in-core PK
  Using 5834640 doubles for integral storage.
  We computed 38226 shell quartets total.
  Whereas there are 38226 unique shell quartets.

  ==> DiskJK: Disk-Based J/K Matrices <==

    J tasked:                  Yes
    K tasked:                  Yes
    wK tasked:                  No
    Memory [MiB]:             7152
    Schwarz Cutoff:          1E-12

    OpenMP threads:              1

  Minimum eigenvalue in the overlap matrix is 4.7781918465E-04.
  Using Symmetric Orthogonalization.

  SCF Guess: Superposition of Atomic Densities via on-the-fly atomic UHF.

  ==> Iterations <==

                        Total Energy        Delta E     RMS |[F,P]|

   @UHF iter SAD:   -74.66140906434732   -7.46614e+01   0.00000e+00 
   @UHF iter   1:   -75.39842268115805   -7.37014e-01   6.03892e-03 DIIS
   @UHF iter   2:   -75.41870146548058   -2.02788e-02   2.34129e-03 DIIS
   @UHF iter   3:   -75.42142464014671   -2.72317e-03   6.76848e-04 DIIS
   @UHF iter   4:   -75.42186033484148   -4.35695e-04   2.05750e-04 DIIS
   @UHF iter   5:   -75.42192994199266   -6.96072e-05   9.04488e-05 DIIS
   @UHF iter   6:   -75.42194851316731   -1.85712e-05   3.12303e-05 DIIS
   @UHF iter   7:   -75.42195122066113   -2.70749e-06   1.01037e-05 DIIS
   @UHF iter   8:   -75.42195150935262   -2.88691e-07   2.12677e-06 DIIS
   @UHF iter   9:   -75.42195151876570   -9.41307e-09   6.86428e-07 DIIS
   @UHF iter  10:   -75.42195151985220   -1.08651e-09   9.86729e-08 DIIS
   @UHF iter  11:   -75.42195151987262   -2.04210e-11   1.37080e-08 DIIS
   @UHF iter  12:   -75.42195151987286   -2.41585e-13   3.07230e-09 DIIS
   @UHF iter  13:   -75.42195151987283    2.84217e-14   7.88848e-10 DIIS
   @UHF iter  14:   -75.42195151987295   -1.13687e-13   1.86283e-10 DIIS
   @UHF iter  15:   -75.42195151987292    2.84217e-14   2.63020e-11 DIIS
  Energy and wave function converged.


  ==> Post-Iterations <==

   @Spin Contamination Metric:   6.809872207E-03
   @S^2 Expected:                7.500000000E-01
   @S^2 Observed:                7.568098722E-01
   @S   Expected:                5.000000000E-01
   @S   Observed:                5.000000000E-01

    Orbital Energies [Eh]
    ---------------------

    Alpha Occupied:                                                       

       1A1   -20.639264     2A1    -1.396702     3A1    -0.689268  
       1B2    -0.659509     1B1    -0.562687  

    Alpha Virtual:                                                        

       4A1     0.030098     5A1     0.136580     2B2     0.152270  
       2B1     0.161512     6A1     0.184876     7A1     0.263548  
       3B2     0.269429     3B1     0.276039     8A1     0.430795  
       9A1     0.631304     1A2     0.638807    10A1     0.652012  
       4B2     0.714005     4B1     0.728763     5B2     0.851035  
       5B1     0.878509    11A1     0.879663    12A1     0.921315  
       2A2     0.939803    13A1     0.940851     6B2     0.984313  
      14A1     1.008163     6B1     1.010559     7B2     1.506786  
       7B1     1.526749    15A1     1.687640     8B2     2.042349  
       8B1     2.042369    16A1     2.054904     3A2     2.097322  
      17A1     2.098124     9B2     2.257642     9B1     2.294160  
      18A1     2.326238     4A2     2.327539    19A1     2.421748  
      20A1     2.504667    10B2     2.726948    10B1     2.766482  
      21A1     3.610069    11B2     4.035796     5A2     4.048727  
      22A1     4.048996    11B1     4.091796    12B2     4.303973  
      12B1     4.318104    23A1     4.663052    24A1     5.177337  
      13B2     5.316339    13B1     5.355767    25A1     6.123786  
      14B2     6.430713    14B1     6.430736     6A2     6.601896  
      26A1     6.603586     7A2     6.965368    27A1     6.965484  
      15B2     7.136474    15B1     7.194240    16B2     7.210554  
      16B1     7.266523    28A1     7.431789    29A1     7.737256  
      30A1    13.313604  

    Beta Occupied:                                                        

       1A1   -20.599784     2A1    -1.239864     3A1    -0.644948  
       1B1    -0.514840  

    Beta Virtual:                                                         

       4A1     0.031193     1B2     0.062741     5A1     0.138910  
       2B1     0.163670     6A1     0.189115     2B2     0.208872  
       7A1     0.266686     3B1     0.276060     3B2     0.290815  
       8A1     0.440795     9A1     0.649080     1A2     0.655579  
      10A1     0.657323     4B1     0.727054     4B2     0.730787  
      11A1     0.884841     5B1     0.885425     5B2     0.912106  
      12A1     0.931631     2A2     0.941852    13A1     0.942406  
       6B1     1.018104    14A1     1.019506     6B2     1.059435  
       7B1     1.526822     7B2     1.533482    15A1     1.706579  
       8B1     2.061450     8B2     2.061453    16A1     2.076469  
       3A2     2.170825    17A1     2.172826     9B1     2.298141  
       9B2     2.302015    18A1     2.343072     4A2     2.343674  
      19A1     2.437432    20A1     2.519400    10B2     2.772445  
      10B1     2.773506    21A1     3.616243     5A2     4.051907  
      22A1     4.051940    11B1     4.109285    11B2     4.144562  
      12B2     4.313154    12B1     4.315671    23A1     4.673001  
      24A1     5.202119    13B2     5.357851    13B1     5.363184  
      25A1     6.147981    14B1     6.484972    14B2     6.484972  
       6A2     6.642500    26A1     6.642614     7A2     7.057260  
      27A1     7.057482    15B2     7.197166    15B1     7.206661  
      16B2     7.280214    16B1     7.282410    28A1     7.448669  
      29A1     7.765240    30A1    13.345977  

    Final Occupation by Irrep:
             A1    A2    B1    B2 
    DOCC [     3,    0,    1,    0 ]
    SOCC [     0,    0,    0,    1 ]

  @UHF Final Energy:   -75.42195151987292

   => Energetics <=

    Nuclear Repulsion Energy =              4.4661053246688098
    One-Electron Energy =                -112.8292469158351992
    Two-Electron Energy =                  32.9411900712934695
    Total Energy =                        -75.4219515198729198

  UHF NO Occupations:
  HONO-2 :    2 A1 1.9992993
  HONO-1 :    3 A1 1.9979034
  HONO-0 :    1 B2 1.0000000
  LUNO+0 :    4 A1 0.0020966
  LUNO+1 :    5 A1 0.0007007
  LUNO+2 :    2 B1 0.0006093
  LUNO+3 :    6 A1 0.0000011


Computation Completed


Properties will be evaluated at   0.000000,   0.000000,   0.000000 [a0]

Properties computed using the SCF density matrix

  Nuclear Dipole Moment: [e a0]
     X:     0.0000      Y:     0.0000      Z:     0.8357

  Electronic Dipole Moment: [e a0]
     X:     0.0000      Y:     0.0000      Z:    -0.1497

  Dipole Moment: [e a0]
     X:     0.0000      Y:     0.0000      Z:     0.6860     Total:     0.6860

  Dipole Moment: [D]
     X:     0.0000      Y:     0.0000      Z:     1.7436     Total:     1.7436


*** tstop() called on c4-9.compute.lan at Tue Feb 23 13:25:45 2021
Module time:
	user time   =       1.14 seconds =       0.02 minutes
	system time =       0.04 seconds =       0.00 minutes
	total time  =          1 seconds =       0.02 minutes
Total time:
	user time   =       1.14 seconds =       0.02 minutes
	system time =       0.04 seconds =       0.00 minutes
	total time  =          1 seconds =       0.02 minutes
 MINTS: Wrapper to libmints.
   by Justin Turney

   Calculation information:
      Number of threads:                 1
      Number of atoms:                   2
      Number of AO shells:              23
      Number of SO shells:              23
      Number of primitives:             41
      Number of atomic orbitals:        80
      Number of basis functions:        69

      Number of irreps:                  4
      Integral cutoff                 0.00e+00
      Number of functions per irrep: [  30    7   16   16 ]

 OEINTS: Overlap, kinetic, potential, dipole, and quadrupole integrals
         stored in file 35.

      Computing two-electron integrals...done
      Computed 673711 non-zero two-electron integrals.
        Stored in file 33.


*** tstart() called on c4-9.compute.lan
*** at Tue Feb 23 13:25:45 2021


 ============================================================================== 
 ============================================================================== 
 ============================================================================== 

                       MP2   
              Program Written by Ugur Bozkaya,
              Latest Revision June 25, 2014.

 ============================================================================== 
 ============================================================================== 
 ============================================================================== 

	RMS orbital gradient is changed to :     1.00e-07
	MAX orbital gradient is changed to :     1.00e-04
	MO spaces per irreps... 

	IRREP   FC   AOCC  BOCC  AVIR    BVIR  FV 
	==========================================
	  A1     0     3     3    27     27     0
	  A2     0     0     0     7      7     0
	  B1     0     1     1    15     15     0
	  B2     0     1     0    15     16     0
	==========================================

	Computing MP2 energy using SCF MOs (Canonical MP2)... 
	============================================================================== 
	Nuclear Repulsion Energy (a.u.)    :     4.46610532466881
	SCF Energy (a.u.)                  :   -75.42195151987292
	REF Energy (a.u.)                  :   -75.42195151987292
	Alpha-Alpha Contribution (a.u.)    :    -0.03425956697090
	Alpha-Beta Contribution (a.u.)     :    -0.16702129500249
	Beta-Beta Contribution (a.u.)      :    -0.01628475106470
	Scaled_SS Correlation Energy (a.u.):    -0.01684810601187
	Scaled_OS Correlation Energy (a.u.):    -0.20042555400299
	SCS-MP2 Total Energy (a.u.)        :   -75.63922517988777
	SOS-MP2 Total Energy (a.u.)        :   -75.42195151987292
	SCSN-MP2 Total Energy (a.u.)       :   -75.51090951961558
	SCS-MP2-VDW Total Energy (a.u.)    :   -75.66101093649389
	SOS-PI-MP2 Total Energy (a.u.)     :   -75.65578133287640
	MP2 Correlation Energy (a.u.)      :    -0.21756561303809
	MP2 Total Energy (a.u.)            :   -75.63951713291101
	============================================================================== 
	Analytic gradient computation is starting...
	Computing response density matrices...
	Computing off-diagonal blocks of GFM...
	Forming independent-pairs...
	Number of alpha independent-pairs:111
	Number of beta independent-pairs : 96
	Computing orbital gradient...
	Computing diagonal blocks of GFM...
	Solving orbital Z-vector equations...
	Forming relaxed response density matrices...
	Forming relaxed GFM...
	Writing particle density matrices and GFM to disk...
	Necessary information has been sent to DERIV, which will take care of the rest.

*** tstop() called on c4-9.compute.lan at Tue Feb 23 13:25:46 2021
Module time:
	user time   =       0.59 seconds =       0.01 minutes
	system time =       0.29 seconds =       0.00 minutes
	total time  =          1 seconds =       0.02 minutes
Total time:
	user time   =       1.91 seconds =       0.03 minutes
	system time =       0.36 seconds =       0.01 minutes
	total time  =          2 seconds =       0.03 minutes
  Cartesian Displacement SALCs
  By SALC:
  Number of SALCs: 2, nirreps: A1
  Project out translations: False
  Project out rotations: False
	irrep = 0, ncomponent = 1
		0: atom 0, direction z, coef 1.000000
	irrep = 0, ncomponent = 1
		0: atom 1, direction z, coef 1.000000

  By Atomic Center:
  Number of atomic centers: 2
   Atomic Center 0:
	x component, size = 0
	y component, size = 0
	z component, size = 1
		0: salc 0, irrep 0, coef 1.000000
   Atomic Center 1:
	x component, size = 0
	y component, size = 0
	z component, size = 1
		0: salc 1, irrep 0, coef 1.000000

    Molecular point group: c2v
    Full point group: C_inf_v

    Geometry (in Bohr), charge = 0, multiplicity = 2:

       Center              X                  Y                   Z       
    ------------   -----------------  -----------------  -----------------
         O            0.000000000000     0.000000000000    -0.106176220599
         H            0.000000000000     0.000000000000     1.685093670823

	Presorting MO-basis TPDMs.
	Sorting File: MO TPDM (AA|AA) nbuckets = 1
	Sorting File: MO TPDM (AA|aa) nbuckets = 1
	Sorting File: MO TPDM (aa|aa) nbuckets = 1
	Starting first half-transformation.
	Sorting half-transformed TPDMs.
	First half integral transformation complete.


  -Nuclear Repulsion Energy 1st Derivatives:
     Atom            X                  Y                   Z
    ------   -----------------  -----------------  -----------------
       1        0.000000000000     0.000000000000     2.493262096379
       2        0.000000000000     0.000000000000    -2.493262096379


  -Core Hamiltonian Gradient:
     Atom            X                  Y                   Z
    ------   -----------------  -----------------  -----------------
       1        0.000000000000     0.000000000000    -5.045514323461
       2        0.000000000000     0.000000000000     5.045514323461


  -Lagrangian contribution to gradient:
     Atom            X                  Y                   Z
    ------   -----------------  -----------------  -----------------
       1        0.000000000000     0.000000000000     0.278139922234
       2        0.000000000000     0.000000000000    -0.278139922234


  -Two-electron contribution to gradient:
     Atom            X                  Y                   Z
    ------   -----------------  -----------------  -----------------
       1        0.000000000000     0.000000000000     2.293601727712
       2        0.000000000000     0.000000000000    -2.293601727712


  -Total gradient:
     Atom            X                  Y                   Z
    ------   -----------------  -----------------  -----------------
       1        0.000000000000     0.000000000000     0.019489422864
       2        0.000000000000     0.000000000000    -0.019489422864


			-----------------------------------------
			 OPTKING 2.0: for geometry optimizations 
			  - R.A. King,  Bethel University        
			-----------------------------------------

	Internal coordinates to be generated automatically.
	Detected frag 1 with atoms:  1 2
	---Fragment 1 Bond Connectivity---
	 1 : 2
	 2 : 1

	---Fragment 1 Geometry and Gradient---
	 O           0.0000000000        0.0000000000       -0.1061762206
	 H           0.0000000000        0.0000000000        1.6850936708
	             0.0000000000        0.0000000000        0.0194894229
	             0.0000000000        0.0000000000       -0.0194894229

	Previous optimization step data not found.  Starting new optimization.

	---Fragment 1 Intrafragment Coordinates---
	 - Coordinate -           - BOHR/RAD -       - ANG/DEG -
	 R(1,2)           =         1.791270	       0.947899

	Current energy   :       -75.6395171329

	Generating empirical Hessian (Schlegel '84) for each fragment.
	Taking RFO optimization step.
	Going to follow RFO solution 1.
	Using RFO vector 1.
	Norm of target step-size    0.03347
	Projected energy change by RFO approximation:        -0.0000920507

	Back-transformation to cartesian coordinates...
	Successfully converged to displaced geometry.

	--- Internal Coordinate Step in ANG or DEG, aJ/ANG or AJ/DEG ---
	 ---------------------------------------------------------------------------
	   Coordinate                Previous        Force       Change         New 
	   ----------                --------       ------       ------       ------
	    1 R(1,2)          =      0.947899     0.160568     0.017713     0.965612
	 ---------------------------------------------------------------------------
	Successfully symmetrized geometry.

  ==> Convergence Check <==

  Measures of convergence in internal coordinates in au.
  Criteria marked as inactive (o), active & met (*), and active & unmet ( ).
  --------------------------------------------------------------------------------------------- ~
   Step     Total Energy     Delta E     MAX Force     RMS Force      MAX Disp      RMS Disp    ~
  --------------------------------------------------------------------------------------------- ~
    Convergence Criteria             o    2.00e-06 *    1.00e-06 *    6.00e-06 *    4.00e-06 *  ~
  --------------------------------------------------------------------------------------------- ~
      1     -75.63951713   -7.56e+01 o    1.95e-02      1.95e-02      3.35e-02      3.35e-02    ~
  ---------------------------------------------------------------------------------------------

	Writing optimization data to binary file.
	Structure for next step:
	Cartesian Geometry (in Angstrom)
	    O     0.0000000000   0.0000000000  -0.0650425106
	    H     0.0000000000   0.0000000000   0.9005696395
			--------------------------
			 OPTKING Finished Execution 
			--------------------------

    Structure for next step:
    Molecular point group: c2v
    Full point group: C_inf_v

    Geometry (in Angstrom), charge = 0, multiplicity = 2:

    O       
    H             1          R1

    R1        =    0.9656121538

gradient() will perform analytic gradient computation.

*** tstart() called on c4-9.compute.lan
*** at Tue Feb 23 13:25:48 2021

   => Loading Basis Set <=

    Name: AUG-CC-PVTZ
    Role: ORBITAL
    Keyword: BASIS
    atoms 1 entry O          line   331 file /apps/gb/PSI4/1.4.0/share/psi4/basis/aug-cc-pvtz.gbs 
    atoms 2 entry H          line    40 file /apps/gb/PSI4/1.4.0/share/psi4/basis/aug-cc-pvtz.gbs 


         ---------------------------------------------------------
                                   SCF
               by Justin Turney, Rob Parrish, Andy Simmonett
                          and Daniel G. A. Smith
                              UHF Reference
                        1 Threads,   9536 MiB Core
         ---------------------------------------------------------

  ==> Geometry <==

    Molecular point group: c2v
    Full point group: C_inf_v

    Geometry (in Angstrom), charge = 0, multiplicity = 2:

       Center              X                  Y                   Z               Mass       
    ------------   -----------------  -----------------  -----------------  -----------------
         O            0.000000000000     0.000000000000    -0.057235958440    15.994914619570
         H            0.000000000000     0.000000000000     0.908376195407     1.007825032230

  Running in c2v symmetry.

  Rotational constants: A = ************  B =     19.06966  C =     19.06966 [cm^-1]
  Rotational constants: A = ************  B = 571693.94181  C = 571693.94181 [MHz]
  Nuclear repulsion =    4.384180199571311

  Charge       = 0
  Multiplicity = 2
  Electrons    = 9
  Nalpha       = 5
  Nbeta        = 4

  ==> Algorithm <==

  SCF Algorithm Type is PK.
  DIIS enabled.
  MOM disabled.
  Fractional occupation disabled.
  Guess Type is READ.
  Energy threshold   = 1.00e-10
  Density threshold  = 1.00e-10
  Integral threshold = 0.00e+00

  ==> Primary Basis <==

  Basis Set: AUG-CC-PVTZ
    Blend: AUG-CC-PVTZ
    Number of shells: 23
    Number of basis function: 69
    Number of Cartesian functions: 80
    Spherical Harmonics?: true
    Max angular momentum: 3

   => Loading Basis Set <=

    Name: AUG-CC-PVTZ
    Role: ORBITAL
    Keyword: BASIS
    atoms 1 entry O          line   331 file /apps/gb/PSI4/1.4.0/share/psi4/basis/aug-cc-pvtz.gbs 
    atoms 2 entry H          line    40 file /apps/gb/PSI4/1.4.0/share/psi4/basis/aug-cc-pvtz.gbs 

  Reading orbitals from file 180, no projection.

  ==> Pre-Iterations <==

   -------------------------------------------------------
    Irrep   Nso     Nmo     Nalpha   Nbeta   Ndocc  Nsocc
   -------------------------------------------------------
     A1        30      30       0       0       0       0
     A2         7       7       0       0       0       0
     B1        16      16       0       0       0       0
     B2        16      16       0       0       0       0
   -------------------------------------------------------
    Total      69      69       5       4       4       1
   -------------------------------------------------------

  ==> Integral Setup <==

  Using in-core PK algorithm.
   Calculation information:
      Number of atoms:                   2
      Number of AO shells:              23
      Number of primitives:             41
      Number of atomic orbitals:        80
      Number of basis functions:        69

      Integral cutoff                 1.00e-12
      Number of threads:                 1

  Performing in-core PK
  Using 5834640 doubles for integral storage.
  We computed 38226 shell quartets total.
  Whereas there are 38226 unique shell quartets.

  ==> DiskJK: Disk-Based J/K Matrices <==

    J tasked:                  Yes
    K tasked:                  Yes
    wK tasked:                  No
    Memory [MiB]:             7152
    Schwarz Cutoff:          1E-12

    OpenMP threads:              1

  Minimum eigenvalue in the overlap matrix is 4.9929583024E-04.
  Using Symmetric Orthogonalization.

  SCF Guess: Orbitals guess was supplied from a previous computation.

  ==> Iterations <==

                        Total Energy        Delta E     RMS |[F,P]|

   @UHF iter   0:   -75.41232033184031   -7.54123e+01   1.18286e-03 
   @UHF iter   1:   -75.42175982209631   -9.43949e-03   1.35715e-04 DIIS
   @UHF iter   2:   -75.42177132891186   -1.15068e-05   2.71898e-05 DIIS
   @UHF iter   3:   -75.42177196980890   -6.40897e-07   9.38980e-06 DIIS
   @UHF iter   4:   -75.42177213752760   -1.67719e-07   4.22658e-06 DIIS
   @UHF iter   5:   -75.42177217090293   -3.33753e-08   2.24521e-06 DIIS
   @UHF iter   6:   -75.42177218261637   -1.17134e-08   9.77514e-07 DIIS
   @UHF iter   7:   -75.42177218551726   -2.90089e-09   2.19672e-07 DIIS
   @UHF iter   8:   -75.42177218563758   -1.20323e-10   2.62152e-08 DIIS
   @UHF iter   9:   -75.42177218563882   -1.23634e-12   5.61677e-09 DIIS
   @UHF iter  10:   -75.42177218563893   -1.13687e-13   1.70706e-09 DIIS
   @UHF iter  11:   -75.42177218563890    2.84217e-14   3.36613e-10 DIIS
   @UHF iter  12:   -75.42177218563899   -8.52651e-14   8.35413e-11 DIIS
  Energy and wave function converged.


  ==> Post-Iterations <==

   @Spin Contamination Metric:   7.028110313E-03
   @S^2 Expected:                7.500000000E-01
   @S^2 Observed:                7.570281103E-01
   @S   Expected:                5.000000000E-01
   @S   Observed:                5.000000000E-01

    Orbital Energies [Eh]
    ---------------------

    Alpha Occupied:                                                       

       1A1   -20.640755     2A1    -1.391349     3A1    -0.684168  
       1B2    -0.658789     1B1    -0.561915  

    Alpha Virtual:                                                        

       4A1     0.029894     5A1     0.136398     2B2     0.152678  
       2B1     0.161989     6A1     0.184140     7A1     0.262748  
       3B2     0.268801     3B1     0.275342     8A1     0.427194  
       9A1     0.630092     1A2     0.638714    10A1     0.650039  
       4B2     0.714312     4B1     0.729017     5B2     0.853213  
      11A1     0.876319     5B1     0.880549    12A1     0.925335  
       2A2     0.938284    13A1     0.939328     6B2     0.981839  
      14A1     1.001122     6B1     1.008393     7B2     1.498191  
       7B1     1.517497    15A1     1.694892    16A1     2.033867  
       8B2     2.043067     8B1     2.043087     3A2     2.097596  
      17A1     2.098196     9B2     2.252969     9B1     2.289931  
      18A1     2.321447     4A2     2.322446    19A1     2.440037  
      20A1     2.489931    10B2     2.727488    10B1     2.766173  
      21A1     3.584637    11B2     4.023775     5A2     4.033546  
      22A1     4.033796    11B1     4.080764    12B2     4.299770  
      12B1     4.312681    23A1     4.643087    24A1     5.122930  
      13B2     5.266735    13B1     5.305606    25A1     6.130914  
      14B2     6.431452    14B1     6.431476     6A2     6.594817  
      26A1     6.596508    27A1     6.965565     7A2     6.965609  
      15B2     7.134146    16B2     7.170230    15B1     7.186509  
      16B1     7.231847    28A1     7.379508    29A1     7.698124  
      30A1    12.979124  

    Beta Occupied:                                                        

       1A1   -20.601113     2A1    -1.233309     3A1    -0.640195  
       1B1    -0.513895  

    Beta Virtual:                                                         

       4A1     0.031032     1B2     0.063220     5A1     0.138915  
       2B1     0.164184     6A1     0.188360     2B2     0.209974  
       7A1     0.265969     3B1     0.275276     3B2     0.289793  
       8A1     0.437432     9A1     0.645984     1A2     0.655390  
      10A1     0.656673     4B1     0.727227     4B2     0.730939  
      11A1     0.880818     5B1     0.887321     5B2     0.912760  
      12A1     0.936468     2A2     0.940333    13A1     0.941181  
      14A1     1.011925     6B1     1.016242     6B2     1.059696  
       7B1     1.517195     7B2     1.522792    15A1     1.713608  
      16A1     2.055986     8B1     2.062146     8B2     2.062149  
       3A2     2.170698    17A1     2.172393     9B1     2.294242  
       9B2     2.298873    18A1     2.338496     4A2     2.338971  
      19A1     2.456818    20A1     2.503840    10B2     2.771031  
      10B1     2.772892    21A1     3.590258     5A2     4.036313  
      22A1     4.036344    11B1     4.098811    11B2     4.135764  
      12B2     4.305676    12B1     4.309544    23A1     4.653127  
      24A1     5.146040    13B2     5.308318    13B1     5.312947  
      25A1     6.155299    14B1     6.485781    14B2     6.485781  
       6A2     6.635443    26A1     6.635555     7A2     7.057731  
      27A1     7.057952    15B2     7.179695    15B1     7.195601  
      16B1     7.251569    16B2     7.255855    28A1     7.396928  
      29A1     7.726964    30A1    13.012068  

    Final Occupation by Irrep:
             A1    A2    B1    B2 
    DOCC [     3,    0,    1,    0 ]
    SOCC [     0,    0,    0,    1 ]

  @UHF Final Energy:   -75.42177218563899

   => Energetics <=

    Nuclear Repulsion Energy =              4.3841801995713112
    One-Electron Energy =                -112.6864184126067130
    Two-Electron Energy =                  32.8804660273964231
    Total Energy =                        -75.4217721856389716

  UHF NO Occupations:
  HONO-2 :    2 A1 1.9992232
  HONO-1 :    3 A1 1.9978787
  HONO-0 :    1 B2 1.0000000
  LUNO+0 :    4 A1 0.0021213
  LUNO+1 :    5 A1 0.0007768
  LUNO+2 :    2 B1 0.0006176
  LUNO+3 :    6 A1 0.0000011


Computation Completed


Properties will be evaluated at   0.000000,   0.000000,   0.000000 [a0]

Properties computed using the SCF density matrix

  Nuclear Dipole Moment: [e a0]
     X:     0.0000      Y:     0.0000      Z:     0.8513

  Electronic Dipole Moment: [e a0]
     X:     0.0000      Y:     0.0000      Z:    -0.1597

  Dipole Moment: [e a0]
     X:     0.0000      Y:     0.0000      Z:     0.6916     Total:     0.6916

  Dipole Moment: [D]
     X:     0.0000      Y:     0.0000      Z:     1.7578     Total:     1.7578


*** tstop() called on c4-9.compute.lan at Tue Feb 23 13:25:49 2021
Module time:
	user time   =       0.69 seconds =       0.01 minutes
	system time =       0.06 seconds =       0.00 minutes
	total time  =          1 seconds =       0.02 minutes
Total time:
	user time   =       4.09 seconds =       0.07 minutes
	system time =       0.61 seconds =       0.01 minutes
	total time  =          5 seconds =       0.08 minutes
 MINTS: Wrapper to libmints.
   by Justin Turney

   Calculation information:
      Number of threads:                 1
      Number of atoms:                   2
      Number of AO shells:              23
      Number of SO shells:              23
      Number of primitives:             41
      Number of atomic orbitals:        80
      Number of basis functions:        69

      Number of irreps:                  4
      Integral cutoff                 0.00e+00
      Number of functions per irrep: [  30    7   16   16 ]

 OEINTS: Overlap, kinetic, potential, dipole, and quadrupole integrals
         stored in file 35.

      Computing two-electron integrals...done
      Computed 673712 non-zero two-electron integrals.
        Stored in file 33.


*** tstart() called on c4-9.compute.lan
*** at Tue Feb 23 13:25:49 2021


 ============================================================================== 
 ============================================================================== 
 ============================================================================== 

                       MP2   
              Program Written by Ugur Bozkaya,
              Latest Revision June 25, 2014.

 ============================================================================== 
 ============================================================================== 
 ============================================================================== 

	RMS orbital gradient is changed to :     1.00e-07
	MAX orbital gradient is changed to :     1.00e-04
	MO spaces per irreps... 

	IRREP   FC   AOCC  BOCC  AVIR    BVIR  FV 
	==========================================
	  A1     0     3     3    27     27     0
	  A2     0     0     0     7      7     0
	  B1     0     1     1    15     15     0
	  B2     0     1     0    15     16     0
	==========================================

	Computing MP2 energy using SCF MOs (Canonical MP2)... 
	============================================================================== 
	Nuclear Repulsion Energy (a.u.)    :     4.38418019957131
	SCF Energy (a.u.)                  :   -75.42177218563899
	REF Energy (a.u.)                  :   -75.42177218563899
	Alpha-Alpha Contribution (a.u.)    :    -0.03433388418062
	Alpha-Beta Contribution (a.u.)     :    -0.16741030364523
	Beta-Beta Contribution (a.u.)      :    -0.01633356483723
	Scaled_SS Correlation Energy (a.u.):    -0.01688914967262
	Scaled_OS Correlation Energy (a.u.):    -0.20089236437427
	SCS-MP2 Total Energy (a.u.)        :   -75.63955369968588
	SOS-MP2 Total Energy (a.u.)        :   -75.42177218563899
	SCSN-MP2 Total Energy (a.u.)       :   -75.51094689591039
	SCS-MP2-VDW Total Energy (a.u.)    :   -75.66139109881379
	SOS-PI-MP2 Total Energy (a.u.)     :   -75.65614661074230
	MP2 Correlation Energy (a.u.)      :    -0.21807775266308
	MP2 Total Energy (a.u.)            :   -75.63984993830206
	============================================================================== 
	Analytic gradient computation is starting...
	Computing response density matrices...
	Computing off-diagonal blocks of GFM...
	Forming independent-pairs...
	Number of alpha independent-pairs:111
	Number of beta independent-pairs : 96
	Computing orbital gradient...
	Computing diagonal blocks of GFM...
	Solving orbital Z-vector equations...
	Forming relaxed response density matrices...
	Forming relaxed GFM...
	Writing particle density matrices and GFM to disk...
	Necessary information has been sent to DERIV, which will take care of the rest.

*** tstop() called on c4-9.compute.lan at Tue Feb 23 13:25:50 2021
Module time:
	user time   =       0.55 seconds =       0.01 minutes
	system time =       0.24 seconds =       0.00 minutes
	total time  =          1 seconds =       0.02 minutes
Total time:
	user time   =       4.84 seconds =       0.08 minutes
	system time =       0.87 seconds =       0.01 minutes
	total time  =          6 seconds =       0.10 minutes
  Cartesian Displacement SALCs
  By SALC:
  Number of SALCs: 2, nirreps: A1
  Project out translations: False
  Project out rotations: False
	irrep = 0, ncomponent = 1
		0: atom 0, direction z, coef 1.000000
	irrep = 0, ncomponent = 1
		0: atom 1, direction z, coef 1.000000

  By Atomic Center:
  Number of atomic centers: 2
   Atomic Center 0:
	x component, size = 0
	y component, size = 0
	z component, size = 1
		0: salc 0, irrep 0, coef 1.000000
   Atomic Center 1:
	x component, size = 0
	y component, size = 0
	z component, size = 1
		0: salc 1, irrep 0, coef 1.000000

    Molecular point group: c2v
    Full point group: C_inf_v

    Geometry (in Bohr), charge = 0, multiplicity = 2:

       Center              X                  Y                   Z       
    ------------   -----------------  -----------------  -----------------
         O            0.000000000000     0.000000000000    -0.108160285979
         H            0.000000000000     0.000000000000     1.716582228204

	Presorting MO-basis TPDMs.
	Sorting File: MO TPDM (AA|AA) nbuckets = 1
	Sorting File: MO TPDM (AA|aa) nbuckets = 1
	Sorting File: MO TPDM (aa|aa) nbuckets = 1
	Starting first half-transformation.
	Sorting half-transformed TPDMs.
	First half integral transformation complete.


  -Nuclear Repulsion Energy 1st Derivatives:
     Atom            X                  Y                   Z
    ------   -----------------  -----------------  -----------------
       1        0.000000000000     0.000000000000     2.402629502789
       2        0.000000000000     0.000000000000    -2.402629502789


  -Core Hamiltonian Gradient:
     Atom            X                  Y                   Z
    ------   -----------------  -----------------  -----------------
       1        0.000000000000     0.000000000000    -4.919048670423
       2        0.000000000000     0.000000000000     4.919048670423


  -Lagrangian contribution to gradient:
     Atom            X                  Y                   Z
    ------   -----------------  -----------------  -----------------
       1        0.000000000000     0.000000000000     0.278564516486
       2        0.000000000000     0.000000000000    -0.278564516486


  -Two-electron contribution to gradient:
     Atom            X                  Y                   Z
    ------   -----------------  -----------------  -----------------
       1        0.000000000000     0.000000000000     2.238624083182
       2        0.000000000000     0.000000000000    -2.238624083182


  -Total gradient:
     Atom            X                  Y                   Z
    ------   -----------------  -----------------  -----------------
       1        0.000000000000     0.000000000000     0.000769432034
       2        0.000000000000     0.000000000000    -0.000769432034


			-----------------------------------------
			 OPTKING 2.0: for geometry optimizations 
			  - R.A. King,  Bethel University        
			-----------------------------------------

	Previous internal coordinate definitions found.
	---Fragment 1 Geometry and Gradient---
	 O           0.0000000000        0.0000000000       -0.1081602860
	 H           0.0000000000        0.0000000000        1.7165822282
	             0.0000000000        0.0000000000        0.0007694320
	             0.0000000000        0.0000000000       -0.0007694320

	---Fragment 1 Intrafragment Coordinates---
	 - Coordinate -           - BOHR/RAD -       - ANG/DEG -
	 R(1,2)           =         1.824743	       0.965612

	Current energy   :       -75.6398499383

	Energy change for the previous step:
		Projected    :        -0.0000920507
		Actual       :        -0.0003328054
	Energy ratio indicates good step: Trust radius increased to 1.000e+00.


	Performing BFGS update.
	Previous computed or guess Hessian on step 1.
	Steps to be used in Hessian update: 1
	Taking RFO optimization step.
	Going to follow RFO solution 1.
	Using RFO vector 1.
	Norm of target step-size    0.00138
	Projected energy change by RFO approximation:        -0.0000001122

	Back-transformation to cartesian coordinates...
	Successfully converged to displaced geometry.

	--- Internal Coordinate Step in ANG or DEG, aJ/ANG or AJ/DEG ---
	 ---------------------------------------------------------------------------
	   Coordinate                Previous        Force       Change         New 
	   ----------                --------       ------       ------       ------
	    1 R(1,2)          =      0.965612     0.006339     0.000728     0.966340
	 ---------------------------------------------------------------------------
	Successfully symmetrized geometry.

  ==> Convergence Check <==

  Measures of convergence in internal coordinates in au.
  Criteria marked as inactive (o), active & met (*), and active & unmet ( ).
  ---------------------------------------------------------------------------------------------
   Step     Total Energy     Delta E     MAX Force     RMS Force      MAX Disp      RMS Disp   
  ---------------------------------------------------------------------------------------------
    Convergence Criteria             o    2.00e-06 *    1.00e-06 *    6.00e-06 *    4.00e-06 *
  ---------------------------------------------------------------------------------------------
      2     -75.63984994   -3.33e-04 o    7.69e-04      7.69e-04      1.38e-03      1.38e-03    ~
  ---------------------------------------------------------------------------------------------

	Writing optimization data to binary file.
	Structure for next step:
	Cartesian Geometry (in Angstrom)
	    O     0.0000000000   0.0000000000  -0.0575999777
	    H     0.0000000000   0.0000000000   0.9087402114
			--------------------------
			 OPTKING Finished Execution 
			--------------------------

    Structure for next step:
    Molecular point group: c2v
    Full point group: C_inf_v

    Geometry (in Angstrom), charge = 0, multiplicity = 2:

    O       
    H             1          R1

    R1        =    0.9663401929

gradient() will perform analytic gradient computation.

*** tstart() called on c4-9.compute.lan
*** at Tue Feb 23 13:25:52 2021

   => Loading Basis Set <=

    Name: AUG-CC-PVTZ
    Role: ORBITAL
    Keyword: BASIS
    atoms 1 entry O          line   331 file /apps/gb/PSI4/1.4.0/share/psi4/basis/aug-cc-pvtz.gbs 
    atoms 2 entry H          line    40 file /apps/gb/PSI4/1.4.0/share/psi4/basis/aug-cc-pvtz.gbs 


         ---------------------------------------------------------
                                   SCF
               by Justin Turney, Rob Parrish, Andy Simmonett
                          and Daniel G. A. Smith
                              UHF Reference
                        1 Threads,   9536 MiB Core
         ---------------------------------------------------------

  ==> Geometry <==

    Molecular point group: c2v
    Full point group: C_inf_v

    Geometry (in Angstrom), charge = 0, multiplicity = 2:

       Center              X                  Y                   Z               Mass       
    ------------   -----------------  -----------------  -----------------  -----------------
         O            0.000000000000     0.000000000000    -0.057279112426    15.994914619570
         H            0.000000000000     0.000000000000     0.909061080489     1.007825032230

  Running in c2v symmetry.

  Rotational constants: A = ************  B =     19.04093  C =     19.04093 [cm^-1]
  Rotational constants: A = ************  B = 570832.83981  C = 570832.83981 [MHz]
  Nuclear repulsion =    4.380877165614886

  Charge       = 0
  Multiplicity = 2
  Electrons    = 9
  Nalpha       = 5
  Nbeta        = 4

  ==> Algorithm <==

  SCF Algorithm Type is PK.
  DIIS enabled.
  MOM disabled.
  Fractional occupation disabled.
  Guess Type is READ.
  Energy threshold   = 1.00e-10
  Density threshold  = 1.00e-10
  Integral threshold = 0.00e+00

  ==> Primary Basis <==

  Basis Set: AUG-CC-PVTZ
    Blend: AUG-CC-PVTZ
    Number of shells: 23
    Number of basis function: 69
    Number of Cartesian functions: 80
    Spherical Harmonics?: true
    Max angular momentum: 3

   => Loading Basis Set <=

    Name: AUG-CC-PVTZ
    Role: ORBITAL
    Keyword: BASIS
    atoms 1 entry O          line   331 file /apps/gb/PSI4/1.4.0/share/psi4/basis/aug-cc-pvtz.gbs 
    atoms 2 entry H          line    40 file /apps/gb/PSI4/1.4.0/share/psi4/basis/aug-cc-pvtz.gbs 

  Reading orbitals from file 180, no projection.

  ==> Pre-Iterations <==

   -------------------------------------------------------
    Irrep   Nso     Nmo     Nalpha   Nbeta   Ndocc  Nsocc
   -------------------------------------------------------
     A1        30      30       0       0       0       0
     A2         7       7       0       0       0       0
     B1        16      16       0       0       0       0
     B2        16      16       0       0       0       0
   -------------------------------------------------------
    Total      69      69       5       4       4       1
   -------------------------------------------------------

  ==> Integral Setup <==

  Using in-core PK algorithm.
   Calculation information:
      Number of atoms:                   2
      Number of AO shells:              23
      Number of primitives:             41
      Number of atomic orbitals:        80
      Number of basis functions:        69

      Integral cutoff                 1.00e-12
      Number of threads:                 1

  Performing in-core PK
  Using 5834640 doubles for integral storage.
  We computed 38226 shell quartets total.
  Whereas there are 38226 unique shell quartets.

  ==> DiskJK: Disk-Based J/K Matrices <==

    J tasked:                  Yes
    K tasked:                  Yes
    wK tasked:                  No
    Memory [MiB]:             7152
    Schwarz Cutoff:          1E-12

    OpenMP threads:              1

  Minimum eigenvalue in the overlap matrix is 5.0019592763E-04.
  Using Symmetric Orthogonalization.

  SCF Guess: Orbitals guess was supplied from a previous computation.

  ==> Iterations <==

                        Total Energy        Delta E     RMS |[F,P]|

   @UHF iter   0:   -75.42136243653451   -7.54214e+01   4.66240e-05 
   @UHF iter   1:   -75.42175156904764   -3.89133e-04   5.46254e-06 DIIS
   @UHF iter   2:   -75.42175158788012   -1.88325e-08   1.09876e-06 DIIS
   @UHF iter   3:   -75.42175158898132   -1.10120e-09   3.91515e-07 DIIS
   @UHF iter   4:   -75.42175158928384   -3.02521e-10   1.70273e-07 DIIS
   @UHF iter   5:   -75.42175158934327   -5.94298e-11   9.14664e-08 DIIS
   @UHF iter   6:   -75.42175158936197   -1.87015e-11   4.08430e-08 DIIS
   @UHF iter   7:   -75.42175158936703   -5.05906e-12   8.96860e-09 DIIS
   @UHF iter   8:   -75.42175158936726   -2.27374e-13   1.08582e-09 DIIS
   @UHF iter   9:   -75.42175158936723    2.84217e-14   2.44966e-10 DIIS
   @UHF iter  10:   -75.42175158936723    0.00000e+00   7.32607e-11 DIIS
  Energy and wave function converged.


  ==> Post-Iterations <==

   @Spin Contamination Metric:   7.037797722E-03
   @S^2 Expected:                7.500000000E-01
   @S^2 Observed:                7.570377977E-01
   @S   Expected:                5.000000000E-01
   @S   Observed:                5.000000000E-01

    Orbital Energies [Eh]
    ---------------------

    Alpha Occupied:                                                       

       1A1   -20.640815     2A1    -1.391135     3A1    -0.683959  
       1B2    -0.658760     1B1    -0.561884  

    Alpha Virtual:                                                        

       4A1     0.029885     5A1     0.136389     2B2     0.152695  
       2B1     0.162008     6A1     0.184108     7A1     0.262716  
       3B2     0.268776     3B1     0.275314     8A1     0.427044  
       9A1     0.630039     1A2     0.638710    10A1     0.649963  
       4B2     0.714329     4B1     0.729032     5B2     0.853302  
      11A1     0.876169     5B1     0.880632    12A1     0.925512  
       2A2     0.938221    13A1     0.939267     6B2     0.981734  
      14A1     1.000851     6B1     1.008300     7B2     1.497840  
       7B1     1.517120    15A1     1.695187    16A1     2.032970  
       8B2     2.043097     8B1     2.043117     3A2     2.097607  
      17A1     2.098203     9B2     2.252780     9B1     2.289761  
      18A1     2.321247     4A2     2.322237    19A1     2.440847  
      20A1     2.489369    10B2     2.727489    10B1     2.766138  
      21A1     3.583566    11B2     4.023305     5A2     4.032938  
      22A1     4.033188    11B1     4.080329    12B2     4.299603  
      12B1     4.312469    23A1     4.642174    24A1     5.120816  
      13B2     5.264692    13B1     5.303540    25A1     6.131296  
      14B2     6.431482    14B1     6.431506     6A2     6.594536  
      26A1     6.596228    27A1     6.965565     7A2     6.965616  
      15B2     7.133607    16B2     7.169061    15B1     7.185686  
      16B1     7.230973    28A1     7.377583    29A1     7.696537  
      30A1    12.965704  

    Beta Occupied:                                                        

       1A1   -20.601167     2A1    -1.233046     3A1    -0.639999  
       1B1    -0.513857  

    Beta Virtual:                                                         

       4A1     0.031026     1B2     0.063240     5A1     0.138915  
       2B1     0.164205     6A1     0.188326     2B2     0.210019  
       7A1     0.265939     3B1     0.275245     3B2     0.289752  
       8A1     0.437292     9A1     0.645852     1A2     0.655382  
      10A1     0.656651     4B1     0.727239     4B2     0.730949  
      11A1     0.880646     5B1     0.887398     5B2     0.912786  
      12A1     0.936654     2A2     0.940270    13A1     0.941151  
      14A1     1.011633     6B1     1.016162     6B2     1.059703  
       7B1     1.516803     7B2     1.522357    15A1     1.713893  
      16A1     2.055115     8B1     2.062175     8B2     2.062178  
       3A2     2.170693    17A1     2.172376     9B1     2.294085  
       9B2     2.298748    18A1     2.338309     4A2     2.338779  
      19A1     2.457684    20A1     2.503234    10B2     2.770951  
      10B1     2.772845    21A1     3.589164     5A2     4.035689  
      22A1     4.035719    11B1     4.098397    11B2     4.135408  
      12B2     4.305390    12B1     4.309305    23A1     4.652223  
      24A1     5.143852    13B2     5.306279    13B1     5.310878  
      25A1     6.155691    14B1     6.485814    14B2     6.485814  
       6A2     6.635163    26A1     6.635276     7A2     7.057748  
      27A1     7.057968    15B2     7.178594    15B1     7.194677  
      16B1     7.250817    16B2     7.255283    28A1     7.395026  
      29A1     7.725413    30A1    12.998670  

    Final Occupation by Irrep:
             A1    A2    B1    B2 
    DOCC [     3,    0,    1,    0 ]
    SOCC [     0,    0,    0,    1 ]

  @UHF Final Energy:   -75.42175158936723

   => Energetics <=

    Nuclear Repulsion Energy =              4.3808771656148862
    One-Electron Energy =                -112.6806360343310871
    Two-Electron Energy =                  32.8780072793489779
    Total Energy =                        -75.4217515893672186

  UHF NO Occupations:
  HONO-2 :    2 A1 1.9992199
  HONO-1 :    3 A1 1.9978775
  HONO-0 :    1 B2 1.0000000
  LUNO+0 :    4 A1 0.0021225
  LUNO+1 :    5 A1 0.0007801
  LUNO+2 :    2 B1 0.0006180
  LUNO+3 :    6 A1 0.0000011


Computation Completed


Properties will be evaluated at   0.000000,   0.000000,   0.000000 [a0]

Properties computed using the SCF density matrix

  Nuclear Dipole Moment: [e a0]
     X:     0.0000      Y:     0.0000      Z:     0.8519

  Electronic Dipole Moment: [e a0]
     X:     0.0000      Y:     0.0000      Z:    -0.1601

  Dipole Moment: [e a0]
     X:     0.0000      Y:     0.0000      Z:     0.6918     Total:     0.6918

  Dipole Moment: [D]
     X:     0.0000      Y:     0.0000      Z:     1.7584     Total:     1.7584


*** tstop() called on c4-9.compute.lan at Tue Feb 23 13:25:52 2021
Module time:
	user time   =       0.68 seconds =       0.01 minutes
	system time =       0.02 seconds =       0.00 minutes
	total time  =          0 seconds =       0.00 minutes
Total time:
	user time   =       6.96 seconds =       0.12 minutes
	system time =       1.08 seconds =       0.02 minutes
	total time  =          8 seconds =       0.13 minutes
 MINTS: Wrapper to libmints.
   by Justin Turney

   Calculation information:
      Number of threads:                 1
      Number of atoms:                   2
      Number of AO shells:              23
      Number of SO shells:              23
      Number of primitives:             41
      Number of atomic orbitals:        80
      Number of basis functions:        69

      Number of irreps:                  4
      Integral cutoff                 0.00e+00
      Number of functions per irrep: [  30    7   16   16 ]

 OEINTS: Overlap, kinetic, potential, dipole, and quadrupole integrals
         stored in file 35.

      Computing two-electron integrals...done
      Computed 673712 non-zero two-electron integrals.
        Stored in file 33.


*** tstart() called on c4-9.compute.lan
*** at Tue Feb 23 13:25:52 2021



  Module OCC Options:
  ----------------------------------------------------------------------------
  ACTIVE                        => (empty)          
  BASIS_RELATIVISTIC            => (empty)          
  BENCH                         => (empty)          
  CACHELEVEL                    => (empty)          
  CCL_ENERGY                    => (empty)          
  CC_DIIS_MAX_VECS              => (empty)          
  CC_DIIS_MIN_VECS              => (empty)          
  CC_MAXITER                    => (empty)          
  CC_TYPE                       => (empty)          
  CEPA_OS_SCALE                 => (empty)          
  CEPA_SOS_SCALE                => (empty)          
  CEPA_SS_SCALE                 => (empty)          
  CEPA_TYPE                     => (empty)          
  CI_TYPE                       => (empty)          
  CUBEPROP_BASIS_FUNCTIONS      => (empty)          
  CUBEPROP_FILEPATH             => (empty)          
  CUBEPROP_ISOCONTOUR_THRESHOLD => (empty)          
  CUBEPROP_ORBITALS             => (empty)          
  CUBEPROP_TASKS                => (empty)          
  CUBIC_BASIS_TOLERANCE         => (empty)          
  CUBIC_BLOCK_MAX_POINTS        => (empty)          
  CUBIC_GRID_OVERAGE            => (empty)          
  CUBIC_GRID_SPACING            => (empty)          
  CUTOFF                        => (empty)          
  DEBUG                         => (empty)          
  DERTYPE                       => FIRST           !
  DF_BASIS_CC                   => (empty)          
  DIE_IF_NOT_CONVERGED          => (empty)          
  DKH_ORDER                     => (empty)          
  DOCC                          => (empty)          
  DO_DIIS                       => (empty)          
  DO_LEVEL_SHIFT                => (empty)          
  DO_SCS                        => FALSE           !
  DO_SOS                        => FALSE           !
  E3_SCALE                      => (empty)          
  EA_POLES                      => (empty)          
  EKT_EA                        => (empty)          
  EKT_IP                        => (empty)          
  EP_EA_POLES                   => (empty)          
  EP_IP_POLES                   => (empty)          
  EP_MAXITER                    => (empty)          
  EXTERNAL_POTENTIAL_SYMMETRY   => (empty)          
  E_CONVERGENCE                 => 1e-10           !
  FREEZE_CORE                   => (empty)          
  FROZEN_DOCC                   => (empty)          
  FROZEN_UOCC                   => (empty)          
  INTEGRAL_PACKAGE              => (empty)          
  IP_POLES                      => (empty)          
  LEVEL_SHIFT                   => (empty)          
  LINEQ_SOLVER                  => (empty)          
  LITERAL_CFOUR                 => (empty)          
  MAT_NUM_COLUMN_PRINT          => (empty)          
  MAX_MOGRAD_CONVERGENCE        => (empty)          
  MOGRAD_DAMPING                => (empty)          
  MOLDEN_WITH_VIRTUAL           => (empty)          
  MO_DIIS_NUM_VECS              => (empty)          
  MO_MAXITER                    => (empty)          
  MO_READ                       => (empty)          
  MO_STEP_MAX                   => (empty)          
  MO_WRITE                      => (empty)          
  MP2_OS_SCALE                  => (empty)          
  MP2_SOS_SCALE                 => (empty)          
  MP2_SOS_SCALE2                => (empty)          
  MP2_SS_SCALE                  => (empty)          
  MP2_TYPE                      => CONV            !
  MP_TYPE                       => (empty)          
  NAT_ORBS                      => (empty)          
  NUM_FROZEN_DOCC               => (empty)          
  NUM_FROZEN_UOCC               => (empty)          
  NUM_GPUS                      => (empty)          
  OCC_ORBS_PRINT                => (empty)          
  OEPROP                        => (empty)          
  OPT_METHOD                    => (empty)          
  ORB_OPT                       => FALSE           !
  ORB_RESP_SOLVER               => (empty)          
  ORTH_TYPE                     => (empty)          
  PARENT_SYMMETRY               => (empty)          
  PCG_BETA_TYPE                 => (empty)          
  PCG_CONVERGENCE               => (empty)          
  PCG_MAXITER                   => (empty)          
  PCM                           => (empty)          
  PE                            => (empty)          
  PRINT                         => (empty)          
  PRINT_NOONS                   => (empty)          
  PROPERTIES                    => (empty)          
  PROPERTIES_ORIGIN             => (empty)          
  PUREAM                        => (empty)          
  QC_MODULE                     => (empty)          
  RAS1                          => (empty)          
  RAS2                          => (empty)          
  RAS3                          => (empty)          
  RAS4                          => (empty)          
  RELATIVISTIC                  => (empty)          
  RELAXED                       => (empty)          
  RESTRICTED_DOCC               => (empty)          
  RESTRICTED_UOCC               => (empty)          
  RMS_MOGRAD_CONVERGENCE        => (empty)          
  R_CONVERGENCE                 => (empty)          
  SCF_TYPE                      => PK              !
  SCS_TYPE                      => (empty)          
  SOCC                          => (empty)          
  SOS_TYPE                      => (empty)          
  SYMMETRIZE                    => (empty)          
  TPDM_ABCD_TYPE                => (empty)          
  WFN                           => (empty)          
  WFN_TYPE                      => OMP2            !
  WRITER_FILE_LABEL             => (empty)          


 ============================================================================== 
 ============================================================================== 
 ============================================================================== 

                       MP2   
              Program Written by Ugur Bozkaya,
              Latest Revision June 25, 2014.

 ============================================================================== 
 ============================================================================== 
 ============================================================================== 

	RMS orbital gradient is changed to :     1.00e-07
	MAX orbital gradient is changed to :     1.00e-04
	MO spaces per irreps... 

	IRREP   FC   AOCC  BOCC  AVIR    BVIR  FV 
	==========================================
	  A1     0     3     3    27     27     0
	  A2     0     0     0     7      7     0
	  B1     0     1     1    15     15     0
	  B2     0     1     0    15     16     0
	==========================================

	Computing MP2 energy using SCF MOs (Canonical MP2)... 
	============================================================================== 
	Nuclear Repulsion Energy (a.u.)    :     4.38087716561489
	SCF Energy (a.u.)                  :   -75.42175158936723
	REF Energy (a.u.)                  :   -75.42175158936723
	Alpha-Alpha Contribution (a.u.)    :    -0.03433691918330
	Alpha-Beta Contribution (a.u.)     :    -0.16742644224471
	Beta-Beta Contribution (a.u.)      :    -0.01633554872430
	Scaled_SS Correlation Energy (a.u.):    -0.01689082263587
	Scaled_OS Correlation Energy (a.u.):    -0.20091173069365
	SCS-MP2 Total Energy (a.u.)        :   -75.63955414269675
	SOS-MP2 Total Energy (a.u.)        :   -75.42175158936723
	SCSN-MP2 Total Energy (a.u.)       :   -75.51093513288460
	SCS-MP2-VDW Total Energy (a.u.)    :   -75.66139366939424
	SOS-PI-MP2 Total Energy (a.u.)     :   -75.65614860850982
	MP2 Correlation Energy (a.u.)      :    -0.21809891015230
	MP2 Total Energy (a.u.)            :   -75.63985049951954
	============================================================================== 
	Analytic gradient computation is starting...
	Computing response density matrices...
	Computing off-diagonal blocks of GFM...
	Forming independent-pairs...
	Number of alpha independent-pairs:111
	Number of beta independent-pairs : 96
	Computing orbital gradient...
	Computing diagonal blocks of GFM...
	Solving orbital Z-vector equations...
	Forming relaxed response density matrices...
	Forming relaxed GFM...
	Writing particle density matrices and GFM to disk...
	Necessary information has been sent to DERIV, which will take care of the rest.

*** tstop() called on c4-9.compute.lan at Tue Feb 23 13:25:53 2021
Module time:
	user time   =       0.53 seconds =       0.01 minutes
	system time =       0.26 seconds =       0.00 minutes
	total time  =          1 seconds =       0.02 minutes
Total time:
	user time   =       7.68 seconds =       0.13 minutes
	system time =       1.35 seconds =       0.02 minutes
	total time  =          9 seconds =       0.15 minutes
  Cartesian Displacement SALCs
  By SALC:
  Number of SALCs: 2, nirreps: A1
  Project out translations: False
  Project out rotations: False
	irrep = 0, ncomponent = 1
		0: atom 0, direction z, coef 1.000000
	irrep = 0, ncomponent = 1
		0: atom 1, direction z, coef 1.000000

  By Atomic Center:
  Number of atomic centers: 2
   Atomic Center 0:
	x component, size = 0
	y component, size = 0
	z component, size = 1
		0: salc 0, irrep 0, coef 1.000000
   Atomic Center 1:
	x component, size = 0
	y component, size = 0
	z component, size = 1
		0: salc 1, irrep 0, coef 1.000000

    Molecular point group: c2v
    Full point group: C_inf_v

    Geometry (in Bohr), charge = 0, multiplicity = 2:

       Center              X                  Y                   Z       
    ------------   -----------------  -----------------  -----------------
         O            0.000000000000     0.000000000000    -0.108241835195
         H            0.000000000000     0.000000000000     1.717876473438

	Presorting MO-basis TPDMs.
	Sorting File: MO TPDM (AA|AA) nbuckets = 1
	Sorting File: MO TPDM (AA|aa) nbuckets = 1
	Sorting File: MO TPDM (aa|aa) nbuckets = 1
	Starting first half-transformation.
	Sorting half-transformed TPDMs.
	First half integral transformation complete.


  -Nuclear Repulsion Energy 1st Derivatives:
     Atom            X                  Y                   Z
    ------   -----------------  -----------------  -----------------
       1        0.000000000000     0.000000000000     2.399010592526
       2        0.000000000000     0.000000000000    -2.399010592526


  -Core Hamiltonian Gradient:
     Atom            X                  Y                   Z
    ------   -----------------  -----------------  -----------------
       1        0.000000000000     0.000000000000    -4.913980852222
       2        0.000000000000     0.000000000000     4.913980852222


  -Lagrangian contribution to gradient:
     Atom            X                  Y                   Z
    ------   -----------------  -----------------  -----------------
       1        0.000000000000     0.000000000000     0.278569287287
       2        0.000000000000     0.000000000000    -0.278569287287


  -Two-electron contribution to gradient:
     Atom            X                  Y                   Z
    ------   -----------------  -----------------  -----------------
       1        0.000000000000     0.000000000000     2.236447975840
       2        0.000000000000     0.000000000000    -2.236447975840


  -Total gradient:
     Atom            X                  Y                   Z
    ------   -----------------  -----------------  -----------------
       1        0.000000000000     0.000000000000     0.000047003430
       2        0.000000000000     0.000000000000    -0.000047003430


			-----------------------------------------
			 OPTKING 2.0: for geometry optimizations 
			  - R.A. King,  Bethel University        
			-----------------------------------------

	Previous internal coordinate definitions found.
	---Fragment 1 Geometry and Gradient---
	 O           0.0000000000        0.0000000000       -0.1082418352
	 H           0.0000000000        0.0000000000        1.7178764734
	             0.0000000000        0.0000000000        0.0000470034
	             0.0000000000        0.0000000000       -0.0000470034

	---Fragment 1 Intrafragment Coordinates---
	 - Coordinate -           - BOHR/RAD -       - ANG/DEG -
	 R(1,2)           =         1.826118	       0.966340

	Current energy   :       -75.6398504995

	Energy change for the previous step:
		Projected    :        -0.0000001122
		Actual       :        -0.0000005612

	Performing BFGS update.
	Previous computed or guess Hessian on step 1.
	Steps to be used in Hessian update: 2 1
	Taking RFO optimization step.
	Going to follow RFO solution 1.
	Using RFO vector 1.
	Norm of target step-size    0.00008
	Projected energy change by RFO approximation:        -0.0000000004

	Back-transformation to cartesian coordinates...
	Successfully converged to displaced geometry.

	--- Internal Coordinate Step in ANG or DEG, aJ/ANG or AJ/DEG ---
	 ---------------------------------------------------------------------------
	   Coordinate                Previous        Force       Change         New 
	   ----------                --------       ------       ------       ------
	    1 R(1,2)          =      0.966340     0.000387     0.000045     0.966385
	 ---------------------------------------------------------------------------
	Successfully symmetrized geometry.

  ==> Convergence Check <==

  Measures of convergence in internal coordinates in au.
  Criteria marked as inactive (o), active & met (*), and active & unmet ( ).
  ---------------------------------------------------------------------------------------------
   Step     Total Energy     Delta E     MAX Force     RMS Force      MAX Disp      RMS Disp   
  ---------------------------------------------------------------------------------------------
    Convergence Criteria             o    2.00e-06 *    1.00e-06 *    6.00e-06 *    4.00e-06 *
  ---------------------------------------------------------------------------------------------
      3     -75.63985050   -5.61e-07 o    4.70e-05      4.70e-05      8.42e-05      8.42e-05    ~
  ---------------------------------------------------------------------------------------------

	Writing optimization data to binary file.
	Structure for next step:
	Cartesian Geometry (in Angstrom)
	    O     0.0000000000   0.0000000000  -0.0573014034
	    H     0.0000000000   0.0000000000   0.9090833681
			--------------------------
			 OPTKING Finished Execution 
			--------------------------

    Structure for next step:
    Molecular point group: c2v
    Full point group: C_inf_v

    Geometry (in Angstrom), charge = 0, multiplicity = 2:

    O       
    H             1          R1

    R1        =    0.9663847753

gradient() will perform analytic gradient computation.

*** tstart() called on c4-9.compute.lan
*** at Tue Feb 23 13:25:55 2021

   => Loading Basis Set <=

    Name: AUG-CC-PVTZ
    Role: ORBITAL
    Keyword: BASIS
    atoms 1 entry O          line   331 file /apps/gb/PSI4/1.4.0/share/psi4/basis/aug-cc-pvtz.gbs 
    atoms 2 entry H          line    40 file /apps/gb/PSI4/1.4.0/share/psi4/basis/aug-cc-pvtz.gbs 


         ---------------------------------------------------------
                                   SCF
               by Justin Turney, Rob Parrish, Andy Simmonett
                          and Daniel G. A. Smith
                              UHF Reference
                        1 Threads,   9536 MiB Core
         ---------------------------------------------------------

  ==> Geometry <==

    Molecular point group: c2v
    Full point group: C_inf_v

    Geometry (in Angstrom), charge = 0, multiplicity = 2:

       Center              X                  Y                   Z               Mass       
    ------------   -----------------  -----------------  -----------------  -----------------
         O            0.000000000000     0.000000000000    -0.057281755016    15.994914619570
         H            0.000000000000     0.000000000000     0.909103020299     1.007825032230

  Running in c2v symmetry.

  Rotational constants: A = ************  B =     19.03918  C =     19.03918 [cm^-1]
  Rotational constants: A = ************  B = 570780.17236  C = 570780.17236 [MHz]
  Nuclear repulsion =    4.380675061837402

  Charge       = 0
  Multiplicity = 2
  Electrons    = 9
  Nalpha       = 5
  Nbeta        = 4

  ==> Algorithm <==

  SCF Algorithm Type is PK.
  DIIS enabled.
  MOM disabled.
  Fractional occupation disabled.
  Guess Type is READ.
  Energy threshold   = 1.00e-10
  Density threshold  = 1.00e-10
  Integral threshold = 0.00e+00

  ==> Primary Basis <==

  Basis Set: AUG-CC-PVTZ
    Blend: AUG-CC-PVTZ
    Number of shells: 23
    Number of basis function: 69
    Number of Cartesian functions: 80
    Spherical Harmonics?: true
    Max angular momentum: 3

   => Loading Basis Set <=

    Name: AUG-CC-PVTZ
    Role: ORBITAL
    Keyword: BASIS
    atoms 1 entry O          line   331 file /apps/gb/PSI4/1.4.0/share/psi4/basis/aug-cc-pvtz.gbs 
    atoms 2 entry H          line    40 file /apps/gb/PSI4/1.4.0/share/psi4/basis/aug-cc-pvtz.gbs 

  Reading orbitals from file 180, no projection.

  ==> Pre-Iterations <==

   -------------------------------------------------------
    Irrep   Nso     Nmo     Nalpha   Nbeta   Ndocc  Nsocc
   -------------------------------------------------------
     A1        30      30       0       0       0       0
     A2         7       7       0       0       0       0
     B1        16      16       0       0       0       0
     B2        16      16       0       0       0       0
   -------------------------------------------------------
    Total      69      69       5       4       4       1
   -------------------------------------------------------

  ==> Integral Setup <==

  Using in-core PK algorithm.
   Calculation information:
      Number of atoms:                   2
      Number of AO shells:              23
      Number of primitives:             41
      Number of atomic orbitals:        80
      Number of basis functions:        69

      Integral cutoff                 1.00e-12
      Number of threads:                 1

  Performing in-core PK
  Using 5834640 doubles for integral storage.
  We computed 38226 shell quartets total.
  Whereas there are 38226 unique shell quartets.

  ==> DiskJK: Disk-Based J/K Matrices <==

    J tasked:                  Yes
    K tasked:                  Yes
    wK tasked:                  No
    Memory [MiB]:             7152
    Schwarz Cutoff:          1E-12

    OpenMP threads:              1

  Minimum eigenvalue in the overlap matrix is 5.0025109058E-04.
  Using Symmetric Orthogonalization.

  SCF Guess: Orbitals guess was supplied from a previous computation.

  ==> Iterations <==

                        Total Energy        Delta E     RMS |[F,P]|

   @UHF iter   0:   -75.42172646477050   -7.54217e+01   2.85021e-06 
   @UHF iter   1:   -75.42175029553232   -2.38308e-05   3.34228e-07 DIIS
   @UHF iter   2:   -75.42175029560292   -7.05995e-11   6.72446e-08 DIIS
   @UHF iter   3:   -75.42175029560704   -4.12115e-12   2.39919e-08 DIIS
   @UHF iter   4:   -75.42175029560826   -1.22213e-12   1.04214e-08 DIIS
   @UHF iter   5:   -75.42175029560839   -1.27898e-13   5.59726e-09 DIIS
   @UHF iter   6:   -75.42175029560852   -1.27898e-13   2.50263e-09 DIIS
   @UHF iter   7:   -75.42175029560853   -1.42109e-14   5.49070e-10 DIIS
   @UHF iter   8:   -75.42175029560849    4.26326e-14   6.64984e-11 DIIS
  Energy and wave function converged.


  ==> Post-Iterations <==

   @Spin Contamination Metric:   7.038392913E-03
   @S^2 Expected:                7.500000000E-01
   @S^2 Observed:                7.570383929E-01
   @S   Expected:                5.000000000E-01
   @S   Observed:                5.000000000E-01

    Orbital Energies [Eh]
    ---------------------

    Alpha Occupied:                                                       

       1A1   -20.640819     2A1    -1.391122     3A1    -0.683946  
       1B2    -0.658758     1B1    -0.561882  

    Alpha Virtual:                                                        

       4A1     0.029884     5A1     0.136389     2B2     0.152696  
       2B1     0.162010     6A1     0.184106     7A1     0.262714  
       3B2     0.268774     3B1     0.275312     8A1     0.427035  
       9A1     0.630035     1A2     0.638710    10A1     0.649959  
       4B2     0.714330     4B1     0.729033     5B2     0.853308  
      11A1     0.876160     5B1     0.880637    12A1     0.925523  
       2A2     0.938217    13A1     0.939263     6B2     0.981727  
      14A1     1.000835     6B1     1.008294     7B2     1.497819  
       7B1     1.517097    15A1     1.695205    16A1     2.032915  
       8B2     2.043098     8B1     2.043118     3A2     2.097608  
      17A1     2.098204     9B2     2.252768     9B1     2.289750  
      18A1     2.321235     4A2     2.322225    19A1     2.440897  
      20A1     2.489335    10B2     2.727489    10B1     2.766136  
      21A1     3.583501    11B2     4.023276     5A2     4.032901  
      22A1     4.033151    11B1     4.080303    12B2     4.299593  
      12B1     4.312456    23A1     4.642118    24A1     5.120687  
      13B2     5.264567    13B1     5.303414    25A1     6.131319  
      14B2     6.431484    14B1     6.431508     6A2     6.594519  
      26A1     6.596211    27A1     6.965565     7A2     6.965616  
      15B2     7.133572    16B2     7.168992    15B1     7.185634  
      16B1     7.230921    28A1     7.377466    29A1     7.696440  
      30A1    12.964883  

    Beta Occupied:                                                        

       1A1   -20.601170     2A1    -1.233030     3A1    -0.639987  
       1B1    -0.513854  

    Beta Virtual:                                                         

       4A1     0.031025     1B2     0.063241     5A1     0.138915  
       2B1     0.164206     6A1     0.188324     2B2     0.210022  
       7A1     0.265937     3B1     0.275243     3B2     0.289749  
       8A1     0.437284     9A1     0.645844     1A2     0.655381  
      10A1     0.656650     4B1     0.727239     4B2     0.730950  
      11A1     0.880636     5B1     0.887403     5B2     0.912787  
      12A1     0.936665     2A2     0.940266    13A1     0.941149  
      14A1     1.011615     6B1     1.016157     6B2     1.059703  
       7B1     1.516779     7B2     1.522330    15A1     1.713910  
      16A1     2.055062     8B1     2.062177     8B2     2.062180  
       3A2     2.170692    17A1     2.172375     9B1     2.294075  
       9B2     2.298740    18A1     2.338297     4A2     2.338767  
      19A1     2.457737    20A1     2.503197    10B2     2.770947  
      10B1     2.772842    21A1     3.589097     5A2     4.035650  
      22A1     4.035681    11B1     4.098371    11B2     4.135387  
      12B2     4.305372    12B1     4.309290    23A1     4.652168  
      24A1     5.143718    13B2     5.306154    13B1     5.310751  
      25A1     6.155715    14B1     6.485816    14B2     6.485816  
       6A2     6.635146    26A1     6.635259     7A2     7.057749  
      27A1     7.057969    15B2     7.178526    15B1     7.194620  
      16B1     7.250772    16B2     7.255249    28A1     7.394910  
      29A1     7.725318    30A1    12.997851  

    Final Occupation by Irrep:
             A1    A2    B1    B2 
    DOCC [     3,    0,    1,    0 ]
    SOCC [     0,    0,    0,    1 ]

  @UHF Final Energy:   -75.42175029560849

   => Energetics <=

    Nuclear Repulsion Energy =              4.3806750618374020
    One-Electron Energy =                -112.6802821656054334
    Two-Electron Energy =                  32.8778568081595353
    Total Energy =                        -75.4217502956084900

  UHF NO Occupations:
  HONO-2 :    2 A1 1.9992197
  HONO-1 :    3 A1 1.9978775
  HONO-0 :    1 B2 1.0000000
  LUNO+0 :    4 A1 0.0021225
  LUNO+1 :    5 A1 0.0007803
  LUNO+2 :    2 B1 0.0006180
  LUNO+3 :    6 A1 0.0000011


Computation Completed


Properties will be evaluated at   0.000000,   0.000000,   0.000000 [a0]

Properties computed using the SCF density matrix

  Nuclear Dipole Moment: [e a0]
     X:     0.0000      Y:     0.0000      Z:     0.8520

  Electronic Dipole Moment: [e a0]
     X:     0.0000      Y:     0.0000      Z:    -0.1602

  Dipole Moment: [e a0]
     X:     0.0000      Y:     0.0000      Z:     0.6918     Total:     0.6918

  Dipole Moment: [D]
     X:     0.0000      Y:     0.0000      Z:     1.7584     Total:     1.7584


*** tstop() called on c4-9.compute.lan at Tue Feb 23 13:25:56 2021
Module time:
	user time   =       0.65 seconds =       0.01 minutes
	system time =       0.03 seconds =       0.00 minutes
	total time  =          1 seconds =       0.02 minutes
Total time:
	user time   =       9.78 seconds =       0.16 minutes
	system time =       1.56 seconds =       0.03 minutes
	total time  =         12 seconds =       0.20 minutes
 MINTS: Wrapper to libmints.
   by Justin Turney

   Calculation information:
      Number of threads:                 1
      Number of atoms:                   2
      Number of AO shells:              23
      Number of SO shells:              23
      Number of primitives:             41
      Number of atomic orbitals:        80
      Number of basis functions:        69

      Number of irreps:                  4
      Integral cutoff                 0.00e+00
      Number of functions per irrep: [  30    7   16   16 ]

 OEINTS: Overlap, kinetic, potential, dipole, and quadrupole integrals
         stored in file 35.

      Computing two-electron integrals...done
      Computed 673712 non-zero two-electron integrals.
        Stored in file 33.


*** tstart() called on c4-9.compute.lan
*** at Tue Feb 23 13:25:56 2021


 ============================================================================== 
 ============================================================================== 
 ============================================================================== 

                       MP2   
              Program Written by Ugur Bozkaya,
              Latest Revision June 25, 2014.

 ============================================================================== 
[...]
  Guess Type is READ.
  Energy threshold   = 1.00e-10
  Density threshold  = 1.00e-10
  Integral threshold = 0.00e+00

  ==> Primary Basis <==

  Basis Set: AUG-CC-PVTZ
    Blend: AUG-CC-PVTZ
    Number of shells: 23
    Number of basis function: 69
    Number of Cartesian functions: 80
    Spherical Harmonics?: true
    Max angular momentum: 3

   => Loading Basis Set <=

    Name: AUG-CC-PVTZ
    Role: ORBITAL
    Keyword: BASIS
    atoms 1 entry O          line   331 file /apps/gb/PSI4/1.4.0/share/psi4/basis/aug-cc-pvtz.gbs 
    atoms 2 entry H          line    40 file /apps/gb/PSI4/1.4.0/share/psi4/basis/aug-cc-pvtz.gbs 

  Reading orbitals from file 180, no projection.

  ==> Pre-Iterations <==

   -------------------------------------------------------
    Irrep   Nso     Nmo     Nalpha   Nbeta   Ndocc  Nsocc
   -------------------------------------------------------
     A1        30      30       0       0       0       0
     A2         7       7       0       0       0       0
     B1        16      16       0       0       0       0
     B2        16      16       0       0       0       0
   -------------------------------------------------------
    Total      69      69       5       4       4       1
   -------------------------------------------------------

  ==> Integral Setup <==

  Using in-core PK algorithm.
   Calculation information:
      Number of atoms:                   2
      Number of AO shells:              23
      Number of primitives:             41
      Number of atomic orbitals:        80
      Number of basis functions:        69

      Integral cutoff                 1.00e-12
      Number of threads:                 1

  Performing in-core PK
  Using 5834640 doubles for integral storage.
  We computed 38226 shell quartets total.
  Whereas there are 38226 unique shell quartets.

  ==> DiskJK: Disk-Based J/K Matrices <==

    J tasked:                  Yes
    K tasked:                  Yes
    wK tasked:                  No
    Memory [MiB]:             7152
    Schwarz Cutoff:          1E-12

    OpenMP threads:              1

  Minimum eigenvalue in the overlap matrix is 5.0025447182E-04.
  Using Symmetric Orthogonalization.

  SCF Guess: Orbitals guess was supplied from a previous computation.

  ==> Iterations <==

                        Total Energy        Delta E     RMS |[F,P]|

   @UHF iter   0:   -75.42174875553829   -7.54217e+01   1.74678e-07 
   @UHF iter   1:   -75.42175021618864   -1.46065e-06   2.04844e-08 DIIS
   @UHF iter   2:   -75.42175021618891   -2.70006e-13   4.12178e-09 DIIS
   @UHF iter   3:   -75.42175021618897   -5.68434e-14   1.47091e-09 DIIS
   @UHF iter   4:   -75.42175021618893    4.26326e-14   6.39039e-10 DIIS
   @UHF iter   5:   -75.42175021618895   -2.84217e-14   3.43257e-10 DIIS
   @UHF iter   6:   -75.42175021618888    7.10543e-14   1.53458e-10 DIIS
   @UHF iter   7:   -75.42175021618888    0.00000e+00   3.36323e-11 DIIS
  Energy and wave function converged.


  ==> Post-Iterations <==

   @Spin Contamination Metric:   7.038429473E-03
   @S^2 Expected:                7.500000000E-01
   @S^2 Observed:                7.570384295E-01
   @S   Expected:                5.000000000E-01
   @S   Observed:                5.000000000E-01

    Orbital Energies [Eh]
    ---------------------

    Alpha Occupied:                                                       

       1A1   -20.640819     2A1    -1.391122     3A1    -0.683945  
       1B2    -0.658758     1B1    -0.561882  

    Alpha Virtual:                                                        

       4A1     0.029884     5A1     0.136389     2B2     0.152696  
       2B1     0.162010     6A1     0.184106     7A1     0.262713  
       3B2     0.268774     3B1     0.275312     8A1     0.427034  
       9A1     0.630035     1A2     0.638710    10A1     0.649958  
       4B2     0.714330     4B1     0.729033     5B2     0.853308  
      11A1     0.876160     5B1     0.880638    12A1     0.925524  
       2A2     0.938217    13A1     0.939263     6B2     0.981727  
      14A1     1.000834     6B1     1.008294     7B2     1.497817  
       7B1     1.517096    15A1     1.695206    16A1     2.032912  
       8B2     2.043099     8B1     2.043119     3A2     2.097608  
      17A1     2.098204     9B2     2.252767     9B1     2.289749  
      18A1     2.321234     4A2     2.322224    19A1     2.440900  
      20A1     2.489333    10B2     2.727489    10B1     2.766136  
      21A1     3.583497    11B2     4.023274     5A2     4.032899  
      22A1     4.033148    11B1     4.080301    12B2     4.299592  
      12B1     4.312455    23A1     4.642115    24A1     5.120679  
      13B2     5.264559    13B1     5.303406    25A1     6.131321  
      14B2     6.431484    14B1     6.431508     6A2     6.594518  
      26A1     6.596210    27A1     6.965565     7A2     6.965616  
      15B2     7.133570    16B2     7.168988    15B1     7.185630  
      16B1     7.230918    28A1     7.377459    29A1     7.696434  
      30A1    12.964832  

    Beta Occupied:                                                        

       1A1   -20.601170     2A1    -1.233029     3A1    -0.639986  
       1B1    -0.513854  

    Beta Virtual:                                                         

       4A1     0.031025     1B2     0.063241     5A1     0.138915  
       2B1     0.164206     6A1     0.188324     2B2     0.210022  
       7A1     0.265937     3B1     0.275243     3B2     0.289749  
       8A1     0.437283     9A1     0.645844     1A2     0.655381  
      10A1     0.656650     4B1     0.727239     4B2     0.730950  
      11A1     0.880635     5B1     0.887403     5B2     0.912788  
      12A1     0.936666     2A2     0.940266    13A1     0.941149  
      14A1     1.011614     6B1     1.016156     6B2     1.059703  
       7B1     1.516777     7B2     1.522329    15A1     1.713911  
      16A1     2.055059     8B1     2.062177     8B2     2.062180  
       3A2     2.170692    17A1     2.172375     9B1     2.294075  
       9B2     2.298739    18A1     2.338297     4A2     2.338767  
      19A1     2.457740    20A1     2.503195    10B2     2.770946  
      10B1     2.772842    21A1     3.589093     5A2     4.035648  
      22A1     4.035678    11B1     4.098370    11B2     4.135385  
      12B2     4.305371    12B1     4.309289    23A1     4.652165  
      24A1     5.143710    13B2     5.306146    13B1     5.310744  
      25A1     6.155717    14B1     6.485816    14B2     6.485816  
       6A2     6.635145    26A1     6.635258     7A2     7.057749  
      27A1     7.057969    15B2     7.178521    15B1     7.194616  
      16B1     7.250769    16B2     7.255247    28A1     7.394903  
      29A1     7.725312    30A1    12.997800  

    Final Occupation by Irrep:
             A1    A2    B1    B2 
    DOCC [     3,    0,    1,    0 ]
    SOCC [     0,    0,    0,    1 ]

  @UHF Final Energy:   -75.42175021618888

   => Energetics <=

    Nuclear Repulsion Energy =              4.3806626750224797
    One-Electron Energy =                -112.6802604773710073
    Two-Electron Energy =                  32.8778475861596462
    Total Energy =                        -75.4217502161888831

  UHF NO Occupations:
  HONO-2 :    2 A1 1.9992196
  HONO-1 :    3 A1 1.9978775
  HONO-0 :    1 B2 1.0000000
  LUNO+0 :    4 A1 0.0021225
  LUNO+1 :    5 A1 0.0007804
  LUNO+2 :    2 B1 0.0006180
  LUNO+3 :    6 A1 0.0000011


Computation Completed


Properties will be evaluated at   0.000000,   0.000000,   0.000000 [a0]

Properties computed using the SCF density matrix

  Nuclear Dipole Moment: [e a0]
     X:     0.0000      Y:     0.0000      Z:     0.8520

  Electronic Dipole Moment: [e a0]
     X:     0.0000      Y:     0.0000      Z:    -0.1602

  Dipole Moment: [e a0]
     X:     0.0000      Y:     0.0000      Z:     0.6918     Total:     0.6918

  Dipole Moment: [D]
     X:     0.0000      Y:     0.0000      Z:     1.7584     Total:     1.7584


*** tstop() called on c4-9.compute.lan at Tue Feb 23 13:25:59 2021
Module time:
	user time   =       0.63 seconds =       0.01 minutes
	system time =       0.02 seconds =       0.00 minutes
	total time  =          1 seconds =       0.02 minutes
Total time:
	user time   =      12.59 seconds =       0.21 minutes
	system time =       2.02 seconds =       0.03 minutes
	total time  =         15 seconds =       0.25 minutes
 MINTS: Wrapper to libmints.
   by Justin Turney

   Calculation information:
      Number of threads:                 1
      Number of atoms:                   2
      Number of AO shells:              23
      Number of SO shells:              23
      Number of primitives:             41
      Number of atomic orbitals:        80
      Number of basis functions:        69

      Number of irreps:                  4
      Integral cutoff                 0.00e+00
      Number of functions per irrep: [  30    7   16   16 ]

 OEINTS: Overlap, kinetic, potential, dipole, and quadrupole integrals
         stored in file 35.

      Computing two-electron integrals...done
      Computed 673710 non-zero two-electron integrals.
        Stored in file 33.


*** tstart() called on c4-9.compute.lan
*** at Tue Feb 23 13:25:59 2021


 ============================================================================== 
 ============================================================================== 
 ============================================================================== 

                       MP2   
              Program Written by Ugur Bozkaya,
              Latest Revision June 25, 2014.

 ============================================================================== 
 ============================================================================== 
 ============================================================================== 

	RMS orbital gradient is changed to :     1.00e-07
	MAX orbital gradient is changed to :     1.00e-04
	MO spaces per irreps... 

	IRREP   FC   AOCC  BOCC  AVIR    BVIR  FV 
	==========================================
	  A1     0     3     3    27     27     0
	  A2     0     0     0     7      7     0
	  B1     0     1     1    15     15     0
	  B2     0     1     0    15     16     0
	==========================================

	Computing MP2 energy using SCF MOs (Canonical MP2)... 
	============================================================================== 
	Nuclear Repulsion Energy (a.u.)    :     4.38066267502248
	SCF Energy (a.u.)                  :   -75.42175021618888
	REF Energy (a.u.)                  :   -75.42175021618888
	Alpha-Alpha Contribution (a.u.)    :    -0.03433711636318
	Alpha-Beta Contribution (a.u.)     :    -0.16742749147829
	Beta-Beta Contribution (a.u.)      :    -0.01633567759185
	Scaled_SS Correlation Energy (a.u.):    -0.01689093131835
	Scaled_OS Correlation Energy (a.u.):    -0.20091298977395
	SCS-MP2 Total Energy (a.u.)        :   -75.63955413728118
	SOS-MP2 Total Energy (a.u.)        :   -75.42175021618888
	SCSN-MP2 Total Energy (a.u.)       :   -75.51093433354976
	SCS-MP2-VDW Total Energy (a.u.)    :   -75.66139380225862
	SOS-PI-MP2 Total Energy (a.u.)     :   -75.65614870425848
	MP2 Correlation Energy (a.u.)      :    -0.21810028543333
	MP2 Total Energy (a.u.)            :   -75.63985050162221
	============================================================================== 
	Analytic gradient computation is starting...
	Computing response density matrices...
	Computing off-diagonal blocks of GFM...
	Forming independent-pairs...
	Number of alpha independent-pairs:111
	Number of beta independent-pairs : 96
	Computing orbital gradient...
	Computing diagonal blocks of GFM...
	Solving orbital Z-vector equations...
	Forming relaxed response density matrices...
	Forming relaxed GFM...
	Writing particle density matrices and GFM to disk...
	Necessary information has been sent to DERIV, which will take care of the rest.

*** tstop() called on c4-9.compute.lan at Tue Feb 23 13:26:00 2021
Module time:
	user time   =       0.57 seconds =       0.01 minutes
	system time =       0.22 seconds =       0.00 minutes
	total time  =          1 seconds =       0.02 minutes
Total time:
	user time   =      13.35 seconds =       0.22 minutes
	system time =       2.26 seconds =       0.04 minutes
	total time  =         16 seconds =       0.27 minutes
  Cartesian Displacement SALCs
  By SALC:
  Number of SALCs: 2, nirreps: A1
  Project out translations: False
  Project out rotations: False
	irrep = 0, ncomponent = 1
		0: atom 0, direction z, coef 1.000000
	irrep = 0, ncomponent = 1
		0: atom 1, direction z, coef 1.000000

  By Atomic Center:
  Number of atomic centers: 2
   Atomic Center 0:
	x component, size = 0
	y component, size = 0
	z component, size = 1
		0: salc 0, irrep 0, coef 1.000000
   Atomic Center 1:
	x component, size = 0
	y component, size = 0
	z component, size = 1
		0: salc 1, irrep 0, coef 1.000000

    Molecular point group: c2v
    Full point group: C_inf_v

    Geometry (in Bohr), charge = 0, multiplicity = 2:

       Center              X                  Y                   Z       
    ------------   -----------------  -----------------  -----------------
         O            0.000000000000     0.000000000000    -0.108247135045
         H            0.000000000000     0.000000000000     1.717960585904

	Presorting MO-basis TPDMs.
	Sorting File: MO TPDM (AA|AA) nbuckets = 1
	Sorting File: MO TPDM (AA|aa) nbuckets = 1
	Sorting File: MO TPDM (aa|aa) nbuckets = 1
	Starting first half-transformation.
	Sorting half-transformed TPDMs.
	First half integral transformation complete.


  -Nuclear Repulsion Energy 1st Derivatives:
     Atom            X                  Y                   Z
    ------   -----------------  -----------------  -----------------
       1        0.000000000000     0.000000000000     2.398775684042
       2        0.000000000000     0.000000000000    -2.398775684042


  -Core Hamiltonian Gradient:
     Atom            X                  Y                   Z
    ------   -----------------  -----------------  -----------------
       1        0.000000000000     0.000000000000    -4.913651837985
       2        0.000000000000     0.000000000000     4.913651837985


  -Lagrangian contribution to gradient:
     Atom            X                  Y                   Z
    ------   -----------------  -----------------  -----------------
       1        0.000000000000     0.000000000000     0.278569560716
       2        0.000000000000     0.000000000000    -0.278569560716


  -Two-electron contribution to gradient:
     Atom            X                  Y                   Z
    ------   -----------------  -----------------  -----------------
       1        0.000000000000     0.000000000000     2.236306769785
       2        0.000000000000     0.000000000000    -2.236306769785


  -Total gradient:
     Atom            X                  Y                   Z
    ------   -----------------  -----------------  -----------------
       1        0.000000000000     0.000000000000     0.000000176558
       2        0.000000000000     0.000000000000    -0.000000176558


			-----------------------------------------
			 OPTKING 2.0: for geometry optimizations 
			  - R.A. King,  Bethel University        
			-----------------------------------------

	Previous internal coordinate definitions found.
	---Fragment 1 Geometry and Gradient---
	 O           0.0000000000        0.0000000000       -0.1082471350
	 H           0.0000000000        0.0000000000        1.7179605859
	             0.0000000000        0.0000000000        0.0000001766
	             0.0000000000        0.0000000000       -0.0000001766

	---Fragment 1 Intrafragment Coordinates---
	 - Coordinate -           - BOHR/RAD -       - ANG/DEG -
	 R(1,2)           =         1.826208	       0.966388

	Current energy   :       -75.6398505016

	Energy change for the previous step:
		Projected    :        -0.0000000000
		Actual       :         0.0000000000

	Performing BFGS update.
	Previous computed or guess Hessian on step 1.
	Denominators (dg)(dq) or (dq)(dq) are very small.
	 Skipping Hessian update for step 4.
	Denominators (dg)(dq) or (dq)(dq) are very small.
	 Skipping Hessian update for step 3.
	Steps to be used in Hessian update: 2 1
	Taking RFO optimization step.
	Going to follow RFO solution 1.
	Using RFO vector 1.
	Norm of target step-size    0.00000
	Projected energy change by RFO approximation:        -0.0000000000

	Back-transformation to cartesian coordinates...
	Successfully converged to displaced geometry.

	--- Internal Coordinate Step in ANG or DEG, aJ/ANG or AJ/DEG ---
	 ---------------------------------------------------------------------------
	   Coordinate                Previous        Force       Change         New 
	   ----------                --------       ------       ------       ------
	    1 R(1,2)          =      0.966388     0.000001     0.000000     0.966388
	 ---------------------------------------------------------------------------
	Successfully symmetrized geometry.

  ==> Convergence Check <==

  Measures of convergence in internal coordinates in au.
  Criteria marked as inactive (o), active & met (*), and active & unmet ( ).
  ---------------------------------------------------------------------------------------------
   Step     Total Energy     Delta E     MAX Force     RMS Force      MAX Disp      RMS Disp   
  ---------------------------------------------------------------------------------------------
    Convergence Criteria             o    2.00e-06 *    1.00e-06 *    6.00e-06 *    4.00e-06 *
  ---------------------------------------------------------------------------------------------
      5     -75.63985050    9.95e-13 o    1.77e-07 *    1.77e-07 *    3.17e-07 *    3.17e-07 *  ~
  ---------------------------------------------------------------------------------------------


  **** Optimization is complete! (in 5 steps) ****

  ==> Optimization Summary <==

  Measures of convergence in internal coordinates in au.
  --------------------------------------------------------------------------------------------------------------- ~
   Step         Total Energy             Delta E       MAX Force       RMS Force        MAX Disp        RMS Disp  ~
  --------------------------------------------------------------------------------------------------------------- ~
      1     -75.639517132911    -75.639517132911      0.01948942      0.01948942      0.03347262      0.03347262  ~
      2     -75.639849938302     -0.000332805391      0.00076943      0.00076943      0.00137579      0.00137579  ~
      3     -75.639850499520     -0.000000561217      0.00004700      0.00004700      0.00008425      0.00008425  ~
      4     -75.639850501623     -0.000000002104      0.00000288      0.00000288      0.00000516      0.00000516  ~
      5     -75.639850501622      0.000000000001      0.00000018      0.00000018      0.00000032      0.00000032  ~
  --------------------------------------------------------------------------------------------------------------- ~

	Writing optimization data to binary file.
	Final energy is    -75.6398505016222
	Final (previous) structure:
	Cartesian Geometry (in Angstrom)
	    O     0.0000000000   0.0000000000  -0.0572819168
	    H     0.0000000000   0.0000000000   0.9091055873
	Saving final (previous) structure.
			--------------------------
			 OPTKING Finished Execution 
			--------------------------

    Final optimized geometry and variables:
    Molecular point group: c2v
    Full point group: C_inf_v

    Geometry (in Angstrom), charge = 0, multiplicity = 2:

    O       
    H             1          R1

    R1        =    0.9663875079

	Removing binary optimization data file.
	Cleaning optimization helper files.

    Psi4 stopped on: Tuesday, 23 February 2021 01:26PM
    Psi4 wall time for execution: 0:00:18.03

*** Psi4 exiting successfully. Buy a developer a beer!
