
    -----------------------------------------------------------------------
          Psi4: An Open-Source Ab Initio Electronic Structure Package
                               Psi4 1.3.2 release

                         Git: Rev {HEAD} ecbda83 


    R. M. Parrish, L. A. Burns, D. G. A. Smith, A. C. Simmonett,
    A. E. DePrince III, E. G. Hohenstein, U. Bozkaya, A. Yu. Sokolov,
    R. Di Remigio, R. M. Richard, J. F. Gonthier, A. M. James,
    H. R. McAlexander, A. Kumar, M. Saitow, X. Wang, B. P. Pritchard,
    P. Verma, H. F. Schaefer III, K. Patkowski, R. A. King, E. F. Valeev,
    F. A. Evangelista, J. M. Turney, T. D. Crawford, and C. D. Sherrill,
    J. Chem. Theory Comput. 13(7) pp 3185--3197 (2017).
    (doi: 10.1021/acs.jctc.7b00174)


                         Additional Contributions by
    P. Kraus, H. Kruse, M. H. Lechner, M. C. Schieber, R. A. Shaw,
    A. Alenaizan, R. Galvelis, Z. L. Glick, S. Lehtola, and J. P. Misiewicz

    -----------------------------------------------------------------------


    Psi4 started on: Wednesday, 10 March 2021 10:52AM

    Process ID: 124412
    Host:       d1-14.compute.lan
    PSIDATADIR: /apps/gb/PSI4/1.3.2/share/psi4
    Memory:     500.0 MiB
    Threads:    12
    
  ==> Input File <==

--------------------------------------------------------------------------
memory 4 GB

molecule  {
0 3
O    0.000000000000    0.000000000000   -1.647450055281
H    0.000000000000   -0.754760036289   -1.052810479093
H   -0.000000000000    0.753804381511   -1.049223788469
O    0.000000000000    0.000060214939    1.779897323919
}
set {
basis aug-cc-pvtz
reference uhf
e_convergence 10
scf_type pk
freeze_core true
}

set ccenergy {
e_convergence 10
r_convergence 10
}

e = energy('ccsd(t)')

print_out('Stephenergy {}'.format(e))

--------------------------------------------------------------------------

  Memory set to   3.725 GiB by Python driver.

*** tstart() called on d1-14.compute.lan
*** at Wed Mar 10 10:52:42 2021

   => Loading Basis Set <=

    Name: AUG-CC-PVTZ
    Role: ORBITAL
    Keyword: BASIS
    atoms 1, 4 entry O          line   327 file /apps/gb/PSI4/1.3.2/share/psi4/basis/aug-cc-pvtz.gbs 
    atoms 2-3  entry H          line    36 file /apps/gb/PSI4/1.3.2/share/psi4/basis/aug-cc-pvtz.gbs 


         ---------------------------------------------------------
                                   SCF
               by Justin Turney, Rob Parrish, Andy Simmonett
                          and Daniel G. A. Smith
                              UHF Reference
                       12 Threads,   3814 MiB Core
         ---------------------------------------------------------

  ==> Geometry <==

    Molecular point group: cs
    Full point group: Cs

    Geometry (in Angstrom), charge = 0, multiplicity = 3:

       Center              X                  Y                   Z               Mass       
    ------------   -----------------  -----------------  -----------------  -----------------
         O            0.000000000000     1.647450055281     0.000000000000    15.994914619570
         H            0.754760036289     1.052810479093     0.000000000000     1.007825032230
         H           -0.753804381511     1.049223788469     0.000000000000     1.007825032230
         O           -0.000060214939    -1.779897323919     0.000000000000    15.994914619570

  Running in cs symmetry.

  Rotational constants: A =     14.69987  B =      0.17503  C =      0.17297 [cm^-1]
  Rotational constants: A = 440691.07608  B =   5247.38314  C =   5185.63689 [MHz]
  Nuclear repulsion =   21.927246122700097

  Charge       = 0
  Multiplicity = 3
  Electrons    = 18
  Nalpha       = 10
  Nbeta        = 8

  ==> Algorithm <==

  SCF Algorithm Type is PK.
  DIIS enabled.
  MOM disabled.
  Fractional occupation disabled.
  Guess Type is SAD.
  Energy threshold   = 1.00e-10
  Density threshold  = 1.00e-08
  Integral threshold = 0.00e+00

  ==> Primary Basis <==

  Basis Set: AUG-CC-PVTZ
    Blend: AUG-CC-PVTZ
    Number of shells: 46
    Number of basis function: 138
    Number of Cartesian functions: 160
    Spherical Harmonics?: true
    Max angular momentum: 3

  ==> Pre-Iterations <==

   -------------------------------------------------------
    Irrep   Nso     Nmo     Nalpha   Nbeta   Ndocc  Nsocc
   -------------------------------------------------------
     A'        92      92       0       0       0       0
     A"        46      46       0       0       0       0
   -------------------------------------------------------
    Total     138     138      10       8       8       2
   -------------------------------------------------------

  ==> Integral Setup <==

  Using in-core PK algorithm.
   Calculation information:
      Number of atoms:                   4
      Number of AO shells:              46
      Number of primitives:             82
      Number of atomic orbitals:       160
      Number of basis functions:       138

      Integral cutoff                 1.00e-12
      Number of threads:                12

  Performing in-core PK
  Using 91996872 doubles for integral storage.
  We computed 904340 shell quartets total.
  Whereas there are 584821 unique shell quartets.
    54.64 percent of shell quartets recomputed by reordering.

  ==> DiskJK: Disk-Based J/K Matrices <==

    J tasked:                  Yes
    K tasked:                  Yes
    wK tasked:                  No
    Memory [MiB]:             2861
    Schwarz Cutoff:          1E-12

    OpenMP threads:             12

  Minimum eigenvalue in the overlap matrix is 3.7103827883E-04.
  Using Symmetric Orthogonalization.

  SCF Guess: Superposition of Atomic Densities via on-the-fly atomic UHF.

  ==> Iterations <==

                        Total Energy        Delta E     RMS |[F,P]|

   @UHF iter SAD:  -149.38294424644494   -1.49383e+02   0.00000e+00 
   @UHF iter   1:  -150.76832026525832   -1.38538e+00   4.95175e-03 DIIS
   @UHF iter   2:  -150.83874660614072   -7.04263e-02   3.20601e-03 DIIS
   @UHF iter   3:  -150.87231076968013   -3.35642e-02   3.84524e-04 DIIS
   @UHF iter   4:  -150.87342407886067   -1.11331e-03   1.27901e-04 DIIS
   @UHF iter   5:  -150.87355273747767   -1.28659e-04   5.08143e-05 DIIS
   @UHF iter   6:  -150.87358627068198   -3.35332e-05   1.45306e-05 DIIS
   @UHF iter   7:  -150.87358918636619   -2.91568e-06   3.47929e-06 DIIS
   @UHF iter   8:  -150.87358936881927   -1.82453e-07   8.69361e-07 DIIS
   @UHF iter   9:  -150.87358937968887   -1.08696e-08   1.60875e-07 DIIS
   @UHF iter  10:  -150.87358938002444   -3.35575e-10   5.24529e-08 DIIS
   @UHF iter  11:  -150.87358938007782   -5.33760e-11   3.24249e-08 DIIS
   @UHF iter  12:  -150.87358938011809   -4.02736e-11   2.28134e-08 DIIS
   @UHF iter  13:  -150.87358938013935   -2.12594e-11   2.16581e-08 DIIS
   @UHF iter  14:  -150.87358938015754   -1.81899e-11   2.14756e-08 DIIS
   @UHF iter  15:  -150.87358938018099   -2.34479e-11   2.14222e-08 DIIS
   @UHF iter  16:  -150.87358938028476   -1.03768e-10   2.12259e-08 DIIS
   @UHF iter  17:  -150.87358938119360   -9.08841e-10   1.94179e-08 DIIS
   @UHF iter  18:  -150.87358938451325   -3.31966e-09   1.13150e-08 DIIS
   @UHF iter  19:  -150.87358938525250   -7.39249e-10   6.99556e-09 DIIS
   @UHF iter  20:  -150.87358938547078   -2.18279e-10   1.39605e-09 DIIS
   @UHF iter  21:  -150.87358938547357   -2.78533e-12   8.63663e-10 DIIS
  Energy and wave function converged.


  ==> Post-Iterations <==

   @Spin Contamination Metric:   9.220793132E-03
   @S^2 Expected:                2.000000000E+00
   @S^2 Observed:                2.009220793E+00
   @S   Expected:                1.000000000E+00
   @S   Observed:                1.000000000E+00

    Orbital Energies [Eh]
    ---------------------

    Alpha Occupied:                                                       

       1Ap   -20.728937     2Ap   -20.563028     3Ap    -1.437918  
       4Ap    -1.347011     5Ap    -0.729326     1App   -0.728944  
       6Ap    -0.708098     7Ap    -0.632244     8Ap    -0.580212  
       2App   -0.505365  

    Alpha Virtual:                                                        

       9Ap     0.035486    10Ap     0.048544     3App    0.132102  
      11Ap     0.134736    12Ap     0.148022    13Ap     0.158012  
       4App    0.181127    14Ap     0.184963    15Ap     0.189278  
      16Ap     0.250209    17Ap     0.257516     5App    0.266081  
      18Ap     0.273453     6App    0.319691    19Ap     0.367555  
      20Ap     0.382362    21Ap     0.454172    22Ap     0.471817  
       7App    0.609092    23Ap     0.615745    24Ap     0.618263  
      25Ap     0.619555     8App    0.640521    26Ap     0.717641  
       9App    0.731076    27Ap     0.735829    10App    0.741979  
      28Ap     0.800466    29Ap     0.838263    11App    0.840927  
      30Ap     0.854143    12App    0.915295    31Ap     0.925254  
      13App    0.934051    32Ap     0.941826    33Ap     0.958428  
      14App    0.960544    34Ap     0.961955    35Ap     1.048831  
      36Ap     1.054159    15App    1.122947    16App    1.185760  
      37Ap     1.186467    38Ap     1.255005    39Ap     1.262116  
      40Ap     1.275122    41Ap     1.345946    17App    1.511536  
      18App    1.591731    42Ap     1.630947    43Ap     1.828481  
      44Ap     1.829861    45Ap     1.972187    19App    1.978607  
      46Ap     1.989541    47Ap     2.005359    20App    2.011054  
      21App    2.026079    48Ap     2.036257    22App    2.039704  
      49Ap     2.081054    50Ap     2.086133    23App    2.119597  
      51Ap     2.145475    52Ap     2.260336    24App    2.278756  
      25App    2.329299    53Ap     2.337008    54Ap     2.402303  
      55Ap     2.487826    56Ap     2.492059    26App    2.505364  
      57Ap     2.575287    58Ap     2.689261    27App    2.718694  
      59Ap     2.820123    28App    2.888814    60Ap     2.901090  
      61Ap     3.667128    62Ap     3.753109    29App    4.031284  
      30App    4.050705    63Ap     4.084501    31App    4.101401  
      64Ap     4.147574    65Ap     4.277815    32App    4.282958  
      66Ap     4.366780    33App    4.383147    67Ap     4.405380  
      34App    4.416485    68Ap     4.530431    69Ap     4.749247  
      70Ap     4.852695    35App    5.149752    71Ap     5.164769  
      72Ap     5.251176    73Ap     5.369138    36App    5.528109  
      74Ap     5.674599    75Ap     6.199988    37App    6.315171  
      76Ap     6.316004    38App    6.370012    77Ap     6.375200  
      39App    6.402008    78Ap     6.449969    79Ap     6.479897  
      80Ap     6.527641    40App    6.737238    41App    6.819138  
      81Ap     6.820570    42App    6.927321    82Ap     6.930686  
      83Ap     6.956746    84Ap     7.033023    43App    7.135812  
      44App    7.260594    45App    7.318318    85Ap     7.342833  
      86Ap     7.357939    46App    7.358140    87Ap     7.547216  
      88Ap     7.899258    89Ap     7.937465    90Ap     8.529704  
      91Ap     8.813315    92Ap    15.729190  

    Beta Occupied:                                                        

       1Ap   -20.650372     2Ap   -20.563066     3Ap    -1.347184  
       4Ap    -1.095617     5Ap    -0.708235     6Ap    -0.584303  
       7Ap    -0.538526     1App   -0.505356  

    Beta Virtual:                                                         

       8Ap     0.035399     9Ap     0.036605     2App    0.049905  
      10Ap     0.069579    11Ap     0.140899    12Ap     0.150601  
       3App    0.160422    13Ap     0.180884    14Ap     0.189596  
      15Ap     0.221873     4App    0.225301    16Ap     0.259209  
      17Ap     0.263107     5App    0.266394    18Ap     0.274891  
       6App    0.320332    19Ap     0.370941    20Ap     0.387409  
      21Ap     0.455301    22Ap     0.472346    23Ap     0.618198  
      24Ap     0.620669     7App    0.641321    25Ap     0.651313  
       8App    0.652630    26Ap     0.718971     9App    0.732504  
      10App    0.743960    27Ap     0.747241    28Ap     0.808974  
      29Ap     0.851337    11App    0.912197    12App    0.930476  
      30Ap     0.930583    13App    0.935448    31Ap     0.940094  
      32Ap     0.944536    33Ap     0.959356    34Ap     1.009564  
      14App    1.024946    35Ap     1.049423    36Ap     1.056920  
      15App    1.127970    16App    1.186464    37Ap     1.190543  
      38Ap     1.268635    39Ap     1.278195    40Ap     1.280856  
      41Ap     1.403607    17App    1.511642    18App    1.591832  
      42Ap     1.643529    43Ap     1.829605    44Ap     1.831097  
      45Ap     1.979273    19App    2.016704    46Ap     2.021379  
      47Ap     2.030587    20App    2.041465    21App    2.046296  
      48Ap     2.099879    49Ap     2.124825    50Ap     2.155087  
      22App    2.182379    23App    2.188920    51Ap     2.195179  
      24App    2.282963    52Ap     2.306364    25App    2.332228  
      53Ap     2.357926    54Ap     2.413119    55Ap     2.492058  
      56Ap     2.496651    26App    2.510027    57Ap     2.578290  
      58Ap     2.689422    27App    2.718783    59Ap     2.820431  
      28App    2.888836    60Ap     2.903120    61Ap     3.667165  
      62Ap     3.753254    29App    4.031371    30App    4.100766  
      63Ap     4.162226    31App    4.223502    64Ap     4.241094  
      32App    4.282979    65Ap     4.291443    33App    4.383194  
      66Ap     4.390854    67Ap     4.414164    34App    4.416668  
      68Ap     4.530629    69Ap     4.749392    70Ap     4.852785  
      35App    5.149769    71Ap     5.164774    72Ap     5.251199  
      73Ap     5.369587    36App    5.528113    74Ap     5.674932  
      75Ap     6.201665    37App    6.424020    76Ap     6.424708  
      38App    6.446672    77Ap     6.450257    39App    6.457305  
      78Ap     6.494603    79Ap     6.528705    80Ap     6.539652  
      40App    6.743632    81Ap     6.930711    41App    7.008163  
      82Ap     7.009962    42App    7.034758    83Ap     7.065808  
      84Ap     7.114004    43App    7.136082    44App    7.260550  
      45App    7.318358    85Ap     7.344902    46App    7.358199  
      86Ap     7.358609    87Ap     7.547918    88Ap     7.899489  
      89Ap     7.937450    90Ap     8.614833    91Ap     8.813255  
      92Ap    15.729184  

    Final Occupation by Irrep:
             Ap   App 
    DOCC [     7,    1 ]
    SOCC [     1,    1 ]

  @UHF Final Energy:  -150.87358938547357

   => Energetics <=

    Nuclear Repulsion Energy =             21.9272461227000974
    One-Electron Energy =                -251.6479309559851458
    Two-Electron Energy =                  78.8470954478114976
    Total Energy =                       -150.8735893854735650

  UHF NO Occupations:
  HONO-2 :    7 Ap 1.9970743
  HONO-1 :    2App 1.0000000
  HONO-0 :    8 Ap 1.0000000
  LUNO+0 :    9 Ap 0.0029257
  LUNO+1 :   10 Ap 0.0016873
  LUNO+2 :   11 Ap 0.0000024
  LUNO+3 :   12 Ap 0.0000004


Computation Completed


Properties will be evaluated at   0.000000,   0.000000,   0.000000 [a0]

Properties computed using the SCF density matrix

  Nuclear Dipole Moment: [e a0]
     X:     0.0009      Y:     1.9700      Z:     0.0000

  Electronic Dipole Moment: [e a0]
     X:    -0.0001      Y:    -2.8032      Z:     0.0000

  Dipole Moment: [e a0]
     X:     0.0008      Y:    -0.8332      Z:     0.0000     Total:     0.8332

  Dipole Moment: [D]
     X:     0.0021      Y:    -2.1178      Z:     0.0000     Total:     2.1178


*** tstop() called on d1-14.compute.lan at Wed Mar 10 10:52:50 2021
Module time:
	user time   =      67.88 seconds =       1.13 minutes
	system time =       4.25 seconds =       0.07 minutes
	total time  =          8 seconds =       0.13 minutes
Total time:
	user time   =      67.88 seconds =       1.13 minutes
	system time =       4.25 seconds =       0.07 minutes
	total time  =          8 seconds =       0.13 minutes
 MINTS: Wrapper to libmints.
   by Justin Turney

   Calculation information:
      Number of threads:                12
      Number of atoms:                   4
      Number of AO shells:              46
      Number of SO shells:              46
      Number of primitives:             82
      Number of atomic orbitals:       160
      Number of basis functions:       138

      Number of irreps:                  2
      Integral cutoff                 0.00e+00
      Number of functions per irrep: [  92   46 ]

 OEINTS: Overlap, kinetic, potential, dipole, and quadrupole integrals
         stored in file 35.

      Computing two-electron integrals...done
      Computed 22928704 non-zero two-electron integrals.
        Stored in file 33.


*** tstart() called on d1-14.compute.lan
*** at Wed Mar 10 10:52:54 2021


	Wfn Parameters:
	--------------------
	Wavefunction         = CCSD_T
	Number of irreps     = 2
	Number of MOs        = 138
	Number of active MOs = 136
	AO-Basis             = NONE
	Semicanonical        = false
	Reference            = UHF
	Print Level          = 1

	IRREP	# MOs	# FZDC	# DOCC	# SOCC	# VIRT	# FZVR
	-----	-----	------	------	------	------	------
	 Ap	   92	    2	    5	    1	    84	    0
	 App	   46	    0	    1	    1	    44	    0
	Transforming integrals...
	IWL integrals will be deleted.
	(OO|OO)...
	Presorting SO-basis two-electron integrals.
	Sorting File: SO Ints (nn|nn) nbuckets = 1
	Transforming the one-electron integrals and constructing Fock matrices
	Starting AA/AB first half-transformation.
	Sorting AA/AB half-transformed integrals.
	Starting BB first half-transformation.
	Sorting BB half-transformed integrals.
	First half integral transformation complete.
	Starting AA second half-transformation.
	Starting AB second half-transformation.
	Starting BB second half-transformation.
	Two-electron integral transformation complete.
	(OO|OV)...
	Starting AA second half-transformation.
	Starting AB second half-transformation.
	Starting BB second half-transformation.
	Two-electron integral transformation complete.
	(OO|VV)...
	Starting AA second half-transformation.
	Starting AB second half-transformation.
	Starting BB second half-transformation.
	Two-electron integral transformation complete.
	(OV|OO)...
	Starting AA/AB first half-transformation.
	Sorting AA/AB half-transformed integrals.
	Starting BB first half-transformation.
	Sorting BB half-transformed integrals.
	First half integral transformation complete.
	Starting AA second half-transformation.
	Starting AB second half-transformation.
	Starting BB second half-transformation.
	Two-electron integral transformation complete.
	(OV|OV)...
	Starting AA second half-transformation.
	Starting AB second half-transformation.
	Starting BB second half-transformation.
	Two-electron integral transformation complete.
	(OV|VV)...
	Starting AA second half-transformation.
	Starting AB second half-transformation.
	Starting BB second half-transformation.
	Two-electron integral transformation complete.
	(VV|OO)...
	Starting AA/AB first half-transformation.
	Sorting AA/AB half-transformed integrals.
	Starting BB first half-transformation.
	Sorting BB half-transformed integrals.
	First half integral transformation complete.
	Starting AA second half-transformation.
	Starting AB second half-transformation.
	Starting BB second half-transformation.
	Two-electron integral transformation complete.
	(VV|OV)...
	Starting AA second half-transformation.
	Starting AB second half-transformation.
	Starting BB second half-transformation.
	Two-electron integral transformation complete.
	(VV|VV)...
	Starting AA second half-transformation.
	Starting AB second half-transformation.
	Starting BB second half-transformation.
	Two-electron integral transformation complete.
	Frozen core energy     =   -125.45790610762838

	Size of irrep 0 of <AB|CD> integrals:     19.643 (MW) /    157.141 (MB)
	Size of irrep 1 of <AB|CD> integrals:     13.660 (MW) /    109.283 (MB)
	Total:                                    33.303 (MW) /    266.424 (MB)

	Size of irrep 0 of <ab|cd> integrals:     20.794 (MW) /    166.349 (MB)
	Size of irrep 1 of <ab|cd> integrals:     14.631 (MW) /    117.045 (MB)
	Total:                                    35.424 (MW) /    283.394 (MB)

	Size of irrep 0 of <Ab|Cd> integrals:     83.174 (MW) /    665.395 (MB)
	Size of irrep 1 of <Ab|Cd> integrals:     56.550 (MW) /    452.403 (MB)
	Total:                                   139.725 (MW) /   1117.798 (MB)

	Size of irrep 0 of <IA|BC> integrals:      5.323 (MW) /     42.586 (MB)
	Size of irrep 1 of <IA|BC> integrals:      3.193 (MW) /     25.547 (MB)
	Total:                                     8.517 (MW) /     68.133 (MB)

	Size of irrep 0 of <ia|bc> integrals:      4.348 (MW) /     34.780 (MB)
	Size of irrep 1 of <ia|bc> integrals:      2.372 (MW) /     18.972 (MB)
	Total:                                     6.719 (MW) /     53.752 (MB)

	Size of irrep 0 of <Ia|Bc> integrals:      5.472 (MW) /     43.776 (MB)
	Size of irrep 1 of <Ia|Bc> integrals:      3.309 (MW) /     26.470 (MB)
	Total:                                     8.781 (MW) /     70.246 (MB)

	Size of irrep 0 of <iA|bC> integrals:      4.232 (MW) /     33.853 (MB)
	Size of irrep 1 of <iA|bC> integrals:      2.286 (MW) /     18.289 (MB)
	Total:                                     6.518 (MW) /     52.142 (MB)

	Size of irrep 0 of tIjAb amplitudes:       0.292 (MW) /      2.335 (MB)
	Size of irrep 1 of tIjAb amplitudes:       0.120 (MW) /      0.963 (MB)
	Total:                                     0.412 (MW) /      3.297 (MB)

	Nuclear Rep. energy          =     21.92724612270010
	SCF energy                   =   -150.87358938547357
	One-electron energy          =    -83.23752037494143
	Two-electron (AA) energy     =      9.94512275519326
	Two-electron (BB) energy     =      5.29239854550492
	Two-electron (AB) energy     =     20.65706967369632
	Two-electron energy          =     35.89459097439450
	Reference energy             =   -150.87358938547519

*** tstop() called on d1-14.compute.lan at Wed Mar 10 10:54:12 2021
Module time:
	user time   =     440.09 seconds =       7.33 minutes
	system time =      97.36 seconds =       1.62 minutes
	total time  =         78 seconds =       1.30 minutes
Total time:
	user time   =     514.94 seconds =       8.58 minutes
	system time =     102.50 seconds =       1.71 minutes
	total time  =         90 seconds =       1.50 minutes
            **************************
            *                        *
            *        CCENERGY        *
            *                        *
            **************************

    Nuclear Rep. energy (wfn)     =   21.927246122700097
    SCF energy          (wfn)     = -150.873589385473565
    Reference energy    (file100) = -150.873589385475185

    Input parameters:
    -----------------
    Wave function   =     CCSD_T
    Reference wfn   =     UHF
    Brueckner       =     No
    Memory (Mbytes) =     4000.0
    Maxiter         =     50
    R_Convergence   =     1.0e-10
    E_Convergence   =     1.0e-10
    Restart         =     Yes
    DIIS            =     Yes
    AO Basis        =     NONE
    ABCD            =     NEW
    Cache Level     =     2
    Cache Type      =     LRU
    Print Level     =     1
    Num. of threads =     12
    # Amps to Print =     10
    Print MP2 Amps? =     No
    Analyze T2 Amps =     No
    Print Pair Ener =     No
    Local CC        =     No
    SCS-MP2         =     False
    SCSN-MP2        =     False
    SCS-CCSD        =     False

MP2 correlation energy -0.4157271776349910
                Solving CC Amplitude Equations
                ------------------------------
  Iter             Energy              RMS        T1Diag      D1Diag    New D1Diag    D2Diag
  ----     ---------------------    ---------   ----------  ----------  ----------   --------
     0        -0.415727177634991    0.000e+00    0.000000    0.000000    0.000000    0.000000
     1        -0.426581396512782    5.639e-02    0.010363    0.000000    0.000000    0.000000
     2        -0.434671813384085    1.679e-02    0.010864    0.000000    0.000000    0.000000
     3        -0.436770876112541    8.409e-03    0.012680    0.000000    0.000000    0.000000
     4        -0.436646944348775    2.492e-03    0.013024    0.000000    0.000000    0.000000
     5        -0.436634918787262    1.259e-03    0.013166    0.000000    0.000000    0.000000
     6        -0.436660366974535    4.984e-04    0.013180    0.000000    0.000000    0.000000
     7        -0.436664492161473    2.245e-04    0.013170    0.000000    0.000000    0.000000
     8        -0.436665242306878    6.823e-05    0.013163    0.000000    0.000000    0.000000
     9        -0.436666458177418    2.786e-05    0.013163    0.000000    0.000000    0.000000
    10        -0.436665286423476    1.054e-05    0.013163    0.000000    0.000000    0.000000
    11        -0.436665396688156    5.196e-06    0.013163    0.000000    0.000000    0.000000
    12        -0.436665357437642    2.531e-06    0.013163    0.000000    0.000000    0.000000
    13        -0.436665350796659    1.362e-06    0.013163    0.000000    0.000000    0.000000
    14        -0.436665377556890    6.511e-07    0.013163    0.000000    0.000000    0.000000
    15        -0.436665376155317    2.184e-07    0.013163    0.000000    0.000000    0.000000
    16        -0.436665376020964    1.702e-07    0.013163    0.000000    0.000000    0.000000
    17        -0.436665376833398    1.367e-07    0.013163    0.000000    0.000000    0.000000
    18        -0.436665376360610    1.338e-07    0.013163    0.000000    0.000000    0.000000
    19        -0.436665375966819    1.327e-07    0.013163    0.000000    0.000000    0.000000
    20        -0.436665375862228    1.321e-07    0.013163    0.000000    0.000000    0.000000
    21        -0.436665375462651    1.306e-07    0.013163    0.000000    0.000000    0.000000
    22        -0.436665375389462    1.226e-07    0.013163    0.000000    0.000000    0.000000
    23        -0.436665376995099    9.773e-08    0.013163    0.000000    0.000000    0.000000
    24        -0.436665376491920    5.138e-08    0.013163    0.000000    0.000000    0.000000
    25        -0.436665376053172    2.058e-08    0.013163    0.000000    0.000000    0.000000
    26        -0.436665376066893    7.699e-09    0.013163    0.000000    0.000000    0.000000
    27        -0.436665376094541    3.545e-09    0.013163    0.000000    0.000000    0.000000
    28        -0.436665376120701    1.989e-09    0.013163    0.000000    0.000000    0.000000
    29        -0.436665376138966    7.652e-10    0.013163    0.000000    0.000000    0.000000
    30        -0.436665376137327    3.145e-10    0.013163    0.000000    0.000000    0.000000
    31        -0.436665376133375    1.318e-10    0.013163    0.000000    0.000000    0.000000
    32        -0.436665376132612    7.221e-11    0.013163    0.000000    0.000000    0.000000

    Iterations converged.


    Largest TIA Amplitudes:
              7  87        -0.0136869691
              7  84        -0.0121446617
              4   3         0.0098501920
              7  85        -0.0087898093
              2   4        -0.0087362139
              6  84        -0.0083265922
              5  10        -0.0076645272
              5   2         0.0060427520
              4  10        -0.0057630648
              4   7        -0.0054148635

    Largest Tia Amplitudes:
              5  89        -0.0137556680
              5  86        -0.0133465061
              3  11        -0.0088482446
              5  85        -0.0078291258
              3   4         0.0065527855
              4   4        -0.0057951140
              3   3         0.0053489436
              2  37         0.0050975391
              1  20        -0.0050609846
              5 113         0.0042914156

    Largest TIJAB Amplitudes:
      6   2  92  21        -0.0170935672
      6   4  92  20         0.0124876849
      4   2  21  20        -0.0124333977
      6   2 103  39         0.0114938764
      7   3  90  17        -0.0089267782
      6   2 111  54         0.0086538184
      6   2 111  21         0.0085904619
      6   0  92  32         0.0085872395
      5   3  13  10        -0.0085809367
      2   0  32  21        -0.0085468691

    Largest Tijab Amplitudes:
      5   2  92  18        -0.0087364935
      3   2  14  11        -0.0082710348
      4   1 106  85        -0.0078961499
      5   3  93  18         0.0075637598
      4   1  91  85        -0.0075055914
      3   2  16  15         0.0074835432
      5   2  89  14         0.0074697842
      5   2 100  18         0.0074671525
      5   2  94  14         0.0074421026
      5   2  98  14         0.0071092585

    Largest TIjAb Amplitudes:
      3   2  13  14        -0.0196336628
      4   4  20  21         0.0173708509
      6   4  92  21        -0.0169488177
      2   4  21  21        -0.0167959487
      6   1  39  85         0.0166309348
      2   1 103  85         0.0166289020
      4   1 104  85         0.0165084612
      6   1  92  33        -0.0158142703
      2   1  21  33        -0.0157049813
      2   1  39   2         0.0151424455

    SCF energy       (wfn)                    = -150.873589385473565
    Reference energy (file100)                = -150.873589385475185

    Opposite-spin MP2 correlation energy      =   -0.314146662883440
    Same-spin MP2 correlation energy          =   -0.101580514751551
    MP2 correlation energy                    =   -0.415727177634991
      * MP2 total energy                      = -151.289316563110162

    Opposite-spin CCSD correlation energy     =   -0.341820582031221
    Same-spin CCSD correlation energy         =   -0.094844794101392
    CCSD correlation energy                   =   -0.436665376132612
      * CCSD total energy                     = -151.310254761607808

            **************************
            *                        *
            *        CCTRIPLES       *
            *                        *
            **************************


    Wave function   =    CCSD_T
    Reference wfn   =      UHF

    Nuclear Rep. energy (wfn)                =   21.927246122700097
    SCF energy          (wfn)                = -150.873589385473565
    Reference energy    (file100)            = -150.873589385475185
    CCSD energy         (file100)            =   -0.436665376132612
    Total CCSD energy   (file100)            = -151.310254761607808

    Number of ijk index combinations:
    Spin Case AAA:                                  56
    Spin Case BBB:                                  20
    Spin Case AAB:                                 168
    Spin Case ABB:                                 120
    AAA (T) energy                             =   -0.000392652016170
    BBB (T) energy                             =   -0.000198089426761
    AAB (T) energy                             =   -0.006678506315348
    ABB (T) energy                             =   -0.004949539558347
    (T) energy                                   =   -0.012218787316626
      * CCSD(T) total energy                     = -151.322473548924421

Stephenergy -151.32247354892442
    Psi4 stopped on: Wednesday, 10 March 2021 10:57AM
    Psi4 wall time for execution: 0:04:39.71

*** Psi4 exiting successfully. Buy a developer a beer!
