
    -----------------------------------------------------------------------
          Psi4: An Open-Source Ab Initio Electronic Structure Package
                               Psi4 1.3.2 release

                         Git: Rev {HEAD} ecbda83 


    R. M. Parrish, L. A. Burns, D. G. A. Smith, A. C. Simmonett,
    A. E. DePrince III, E. G. Hohenstein, U. Bozkaya, A. Yu. Sokolov,
    R. Di Remigio, R. M. Richard, J. F. Gonthier, A. M. James,
    H. R. McAlexander, A. Kumar, M. Saitow, X. Wang, B. P. Pritchard,
    P. Verma, H. F. Schaefer III, K. Patkowski, R. A. King, E. F. Valeev,
    F. A. Evangelista, J. M. Turney, T. D. Crawford, and C. D. Sherrill,
    J. Chem. Theory Comput. 13(7) pp 3185--3197 (2017).
    (doi: 10.1021/acs.jctc.7b00174)


                         Additional Contributions by
    P. Kraus, H. Kruse, M. H. Lechner, M. C. Schieber, R. A. Shaw,
    A. Alenaizan, R. Galvelis, Z. L. Glick, S. Lehtola, and J. P. Misiewicz

    -----------------------------------------------------------------------


    Psi4 started on: Monday, 08 March 2021 09:41AM

    Process ID: 216132
    Host:       c5-20.compute.lan
    PSIDATADIR: /apps/gb/PSI4/1.3.2/share/psi4
    Memory:     500.0 MiB
    Threads:    12
    
  ==> Input File <==

--------------------------------------------------------------------------
memory 4 GB

molecule  {
0 1
O    0.000000000000    0.000000000000   -0.067553740998
H    0.000000000000   -0.751469758168    0.536063446002
H   -0.000000000000    0.751469758168    0.536063446002
}
set {
basis aug-cc-pvtz
reference uhf
e_convergence 10
scf_type pk
freeze_core true
}

set ccenergy {
e_convergence 10
r_convergence 10
}

e = energy('ccsd(t)')

print_out('Stephenergy {}'.format(e))

--------------------------------------------------------------------------

  Memory set to   3.725 GiB by Python driver.

*** tstart() called on c5-20.compute.lan
*** at Mon Mar  8 09:41:18 2021

   => Loading Basis Set <=

    Name: AUG-CC-PVTZ
    Role: ORBITAL
    Keyword: BASIS
    atoms 1   entry O          line   327 file /apps/gb/PSI4/1.3.2/share/psi4/basis/aug-cc-pvtz.gbs 
    atoms 2-3 entry H          line    36 file /apps/gb/PSI4/1.3.2/share/psi4/basis/aug-cc-pvtz.gbs 


         ---------------------------------------------------------
                                   SCF
               by Justin Turney, Rob Parrish, Andy Simmonett
                          and Daniel G. A. Smith
                              UHF Reference
                       12 Threads,   3814 MiB Core
         ---------------------------------------------------------

  ==> Geometry <==

    Molecular point group: c2v
    Full point group: C2v

    Geometry (in Angstrom), charge = 0, multiplicity = 1:

       Center              X                  Y                   Z               Mass       
    ------------   -----------------  -----------------  -----------------  -----------------
         O           -0.000000000000     0.000000000000    -0.067553740998    15.994914619570
         H            0.000000000000    -0.751469758168     0.536063446002     1.007825032230
         H           -0.000000000000     0.751469758168     0.536063446002     1.007825032230

  Running in c2v symmetry.

  Rotational constants: A =     25.84661  B =     14.81011  C =      9.41520 [cm^-1]
  Rotational constants: A = 774861.83667  B = 443995.98938  C = 282260.60534 [MHz]
  Nuclear repulsion =    9.136232128686647

  Charge       = 0
  Multiplicity = 1
  Electrons    = 10
  Nalpha       = 5
  Nbeta        = 5

  ==> Algorithm <==

  SCF Algorithm Type is PK.
  DIIS enabled.
  MOM disabled.
  Fractional occupation disabled.
  Guess Type is SAD.
  Energy threshold   = 1.00e-10
  Density threshold  = 1.00e-08
  Integral threshold = 0.00e+00

  ==> Primary Basis <==

  Basis Set: AUG-CC-PVTZ
    Blend: AUG-CC-PVTZ
    Number of shells: 32
    Number of basis function: 92
    Number of Cartesian functions: 105
    Spherical Harmonics?: true
    Max angular momentum: 3

  ==> Pre-Iterations <==

   -------------------------------------------------------
    Irrep   Nso     Nmo     Nalpha   Nbeta   Ndocc  Nsocc
   -------------------------------------------------------
     A1        35      35       0       0       0       0
     A2        12      12       0       0       0       0
     B1        18      18       0       0       0       0
     B2        27      27       0       0       0       0
   -------------------------------------------------------
    Total      92      92       5       5       5       0
   -------------------------------------------------------

  ==> Integral Setup <==

  Using in-core PK algorithm.
   Calculation information:
      Number of atoms:                   3
      Number of AO shells:              32
      Number of primitives:             52
      Number of atomic orbitals:       105
      Number of basis functions:        92

      Integral cutoff                 1.00e-12
      Number of threads:                12

  Performing in-core PK
  Using 18305562 doubles for integral storage.
  We computed 240258 shell quartets total.
  Whereas there are 139656 unique shell quartets.
    72.04 percent of shell quartets recomputed by reordering.

  ==> DiskJK: Disk-Based J/K Matrices <==

    J tasked:                  Yes
    K tasked:                  Yes
    wK tasked:                  No
    Memory [MiB]:             2861
    Schwarz Cutoff:          1E-12

    OpenMP threads:             12

  Minimum eigenvalue in the overlap matrix is 3.9374111561E-04.
  Using Symmetric Orthogonalization.

  SCF Guess: Superposition of Atomic Densities via on-the-fly atomic UHF.

  ==> Iterations <==

                        Total Energy        Delta E     RMS |[F,P]|

   @UHF iter SAD:   -75.47255367123365   -7.54726e+01   0.00000e+00 
   @UHF iter   1:   -75.97513113369855   -5.02577e-01   9.51231e-03 DIIS
   @UHF iter   2:   -76.02753220277751   -5.24011e-02   6.52857e-03 DIIS
   @UHF iter   3:   -76.05945268102140   -3.19205e-02   4.43346e-04 DIIS
   @UHF iter   4:   -76.05984563671761   -3.92956e-04   1.07231e-04 DIIS
   @UHF iter   5:   -76.05987090189382   -2.52652e-05   2.45574e-05 DIIS
   @UHF iter   6:   -76.05987298900477   -2.08711e-06   5.34752e-06 DIIS
   @UHF iter   7:   -76.05987309701874   -1.08014e-07   9.39558e-07 DIIS
   @UHF iter   8:   -76.05987309992895   -2.91021e-09   1.58033e-07 DIIS
   @UHF iter   9:   -76.05987309999300   -6.40483e-11   3.84677e-08 DIIS
   @UHF iter  10:   -76.05987309999705   -4.05009e-12   5.84755e-09 DIIS
  Energy and wave function converged.


  ==> Post-Iterations <==

   @Spin Contamination Metric:  -3.552713679E-15
   @S^2 Expected:                0.000000000E+00
   @S^2 Observed:               -3.552713679E-15
   @S   Expected:                0.000000000E+00
   @S   Observed:                0.000000000E+00

    Orbital Energies [Eh]
    ---------------------

    Alpha Occupied:                                                       

       1A1   -20.569262     2A1    -1.351674     1B2    -0.710204  
       3A1    -0.587710     1B1    -0.510422  

    Alpha Virtual:                                                        

       4A1     0.029226     2B2     0.047788     5A1     0.135627  
       2B1     0.159178     6A1     0.175431     3B2     0.183498  
       4B2     0.226342     7A1     0.245032     1A2     0.266001  
       3B1     0.298182     8A1     0.309027     5B2     0.365979  
       9A1     0.436744     6B2     0.465455     7B2     0.597992  
      10A1     0.659911    11A1     0.706539     2A2     0.724017  
       4B1     0.731533    12A1     0.831368     5B1     0.847708  
      13A1     0.893423     8B2     0.911936     6B1     0.916292  
       3A2     0.922799     9B2     0.932022    14A1     0.957780  
      15A1     1.019505    10B2     1.041791     7B1     1.081399  
      11B2     1.106648     4A2     1.177075    16A1     1.183430  
      12B2     1.262309     5A2     1.508648    17A1     1.523438  
       8B1     1.576780    18A1     1.809038    13B2     1.832215  
      14B2     1.975670    19A1     2.117643     9B1     2.263502  
       6A2     2.314620    20A1     2.329148    21A1     2.417984  
      10B1     2.421830    15B2     2.444463    22A1     2.483063  
      16B2     2.675375    11B1     2.697311    23A1     2.773393  
      17B2     2.799662     7A2     2.882728    18B2     3.653043  
      24A1     3.723742     8A2     4.023361    12B1     4.078210  
      25A1     4.140499    19B2     4.251985    13B1     4.264916  
      26A1     4.363605     9A2     4.375372    14B1     4.404594  
      20B2     4.524553    27A1     4.728569    21B2     4.844248  
      10A2     5.136003    22B2     5.165337    23B2     5.226849  
      28A1     5.310432    15B1     5.519747    29A1     5.637823  
      30A1     6.187780    24B2     6.505919    16B1     6.707800  
      31A1     6.911730    17B1     7.125768    18B1     7.250512  
      25B2     7.263866    11A2     7.309788    32A1     7.342450  
      12A2     7.349674    33A1     7.518461    34A1     7.869246  
      26B2     7.925932    27B2     8.798382    35A1    15.621171  

    Beta Occupied:                                                        

       1A1   -20.569262     2A1    -1.351674     1B2    -0.710204  
       3A1    -0.587710     1B1    -0.510422  

    Beta Virtual:                                                         

       4A1     0.029226     2B2     0.047788     5A1     0.135627  
       2B1     0.159178     6A1     0.175431     3B2     0.183498  
       4B2     0.226342     7A1     0.245032     1A2     0.266001  
       3B1     0.298182     8A1     0.309027     5B2     0.365979  
       9A1     0.436744     6B2     0.465455     7B2     0.597992  
      10A1     0.659911    11A1     0.706539     2A2     0.724017  
       4B1     0.731533    12A1     0.831368     5B1     0.847708  
      13A1     0.893423     8B2     0.911936     6B1     0.916292  
       3A2     0.922799     9B2     0.932022    14A1     0.957780  
      15A1     1.019505    10B2     1.041791     7B1     1.081399  
      11B2     1.106648     4A2     1.177075    16A1     1.183430  
      12B2     1.262309     5A2     1.508648    17A1     1.523438  
       8B1     1.576780    18A1     1.809038    13B2     1.832215  
      14B2     1.975670    19A1     2.117643     9B1     2.263502  
       6A2     2.314620    20A1     2.329148    21A1     2.417984  
      10B1     2.421830    15B2     2.444463    22A1     2.483063  
      16B2     2.675375    11B1     2.697311    23A1     2.773393  
      17B2     2.799662     7A2     2.882728    18B2     3.653043  
      24A1     3.723742     8A2     4.023361    12B1     4.078210  
      25A1     4.140499    19B2     4.251985    13B1     4.264916  
      26A1     4.363605     9A2     4.375372    14B1     4.404594  
      20B2     4.524553    27A1     4.728569    21B2     4.844248  
      10A2     5.136003    22B2     5.165337    23B2     5.226849  
      28A1     5.310432    15B1     5.519747    29A1     5.637823  
      30A1     6.187780    24B2     6.505919    16B1     6.707800  
      31A1     6.911730    17B1     7.125768    18B1     7.250512  
      25B2     7.263866    11A2     7.309788    32A1     7.342450  
      12A2     7.349674    33A1     7.518461    34A1     7.869246  
      26B2     7.925932    27B2     8.798382    35A1    15.621171  

    Final Occupation by Irrep:
             A1    A2    B1    B2 
    DOCC [     3,    0,    1,    1 ]
    SOCC [     0,    0,    0,    0 ]

  @UHF Final Energy:   -76.05987309999705

   => Energetics <=

    Nuclear Repulsion Energy =              9.1362321286866468
    One-Electron Energy =                -122.9336657631193930
    Two-Electron Energy =                  37.7375605344357012
    Total Energy =                        -76.0598730999970485

  UHF NO Occupations:
  HONO-2 :    2 A1 2.0000000
  HONO-1 :    1 B2 2.0000000
  HONO-0 :    3 A1 2.0000000
  LUNO+0 :    2 B2 0.0000000
  LUNO+1 :    4 A1 0.0000000
  LUNO+2 :    2 B1 0.0000000
  LUNO+3 :    5 A1 0.0000000


Computation Completed


Properties will be evaluated at   0.000000,   0.000000,   0.000000 [a0]

Properties computed using the SCF density matrix

  Nuclear Dipole Moment: [e a0]
     X:     0.0000      Y:     0.0000      Z:     1.0048

  Electronic Dipole Moment: [e a0]
     X:     0.0000      Y:     0.0000      Z:    -0.2094

  Dipole Moment: [e a0]
     X:     0.0000      Y:     0.0000      Z:     0.7954     Total:     0.7954

  Dipole Moment: [D]
     X:     0.0000      Y:     0.0000      Z:     2.0217     Total:     2.0217


*** tstop() called on c5-20.compute.lan at Mon Mar  8 09:41:21 2021
Module time:
	user time   =      17.82 seconds =       0.30 minutes
	system time =       0.38 seconds =       0.01 minutes
	total time  =          3 seconds =       0.05 minutes
Total time:
	user time   =      17.82 seconds =       0.30 minutes
	system time =       0.38 seconds =       0.01 minutes
	total time  =          3 seconds =       0.05 minutes
 MINTS: Wrapper to libmints.
   by Justin Turney

   Calculation information:
      Number of threads:                12
      Number of atoms:                   3
      Number of AO shells:              32
      Number of SO shells:              23
      Number of primitives:             52
      Number of atomic orbitals:       105
      Number of basis functions:        92

      Number of irreps:                  4
      Integral cutoff                 0.00e+00
      Number of functions per irrep: [  35   12   18   27 ]

 OEINTS: Overlap, kinetic, potential, dipole, and quadrupole integrals
         stored in file 35.

      Computing two-electron integrals...done
      Computed 2211964 non-zero two-electron integrals.
        Stored in file 33.


*** tstart() called on c5-20.compute.lan
*** at Mon Mar  8 09:41:22 2021


	Wfn Parameters:
	--------------------
	Wavefunction         = CCSD_T
	Number of irreps     = 4
	Number of MOs        = 92
	Number of active MOs = 91
	AO-Basis             = NONE
	Semicanonical        = false
	Reference            = UHF
	Print Level          = 1

	IRREP	# MOs	# FZDC	# DOCC	# SOCC	# VIRT	# FZVR
	-----	-----	------	------	------	------	------
	 A1	   35	    1	    2	    0	    32	    0
	 A2	   12	    0	    0	    0	    12	    0
	 B1	   18	    0	    1	    0	    17	    0
	 B2	   27	    0	    1	    0	    26	    0
	Transforming integrals...
	IWL integrals will be deleted.
	(OO|OO)...
	Presorting SO-basis two-electron integrals.
	Sorting File: SO Ints (nn|nn) nbuckets = 1
	Transforming the one-electron integrals and constructing Fock matrices
	Starting AA/AB first half-transformation.
	Sorting AA/AB half-transformed integrals.
	Starting BB first half-transformation.
	Sorting BB half-transformed integrals.
	First half integral transformation complete.
	Starting AA second half-transformation.
	Starting AB second half-transformation.
	Starting BB second half-transformation.
	Two-electron integral transformation complete.
	(OO|OV)...
	Starting AA second half-transformation.
	Starting AB second half-transformation.
	Starting BB second half-transformation.
	Two-electron integral transformation complete.
	(OO|VV)...
	Starting AA second half-transformation.
	Starting AB second half-transformation.
	Starting BB second half-transformation.
	Two-electron integral transformation complete.
	(OV|OO)...
	Starting AA/AB first half-transformation.
	Sorting AA/AB half-transformed integrals.
	Starting BB first half-transformation.
	Sorting BB half-transformed integrals.
	First half integral transformation complete.
	Starting AA second half-transformation.
	Starting AB second half-transformation.
	Starting BB second half-transformation.
	Two-electron integral transformation complete.
	(OV|OV)...
	Starting AA second half-transformation.
	Starting AB second half-transformation.
	Starting BB second half-transformation.
	Two-electron integral transformation complete.
	(OV|VV)...
	Starting AA second half-transformation.
	Starting AB second half-transformation.
	Starting BB second half-transformation.
	Two-electron integral transformation complete.
	(VV|OO)...
	Starting AA/AB first half-transformation.
	Sorting AA/AB half-transformed integrals.
	Starting BB first half-transformation.
	Sorting BB half-transformed integrals.
	First half integral transformation complete.
	Starting AA second half-transformation.
	Starting AB second half-transformation.
	Starting BB second half-transformation.
	Two-electron integral transformation complete.
	(VV|OV)...
	Starting AA second half-transformation.
	Starting AB second half-transformation.
	Starting BB second half-transformation.
	Two-electron integral transformation complete.
	(VV|VV)...
	Starting AA second half-transformation.
	Starting AB second half-transformation.
	Starting BB second half-transformation.
	Two-electron integral transformation complete.
	Frozen core energy     =    -61.30150872200166

	Size of irrep 0 of <AB|CD> integrals:      1.047 (MW) /      8.372 (MB)
	Size of irrep 1 of <AB|CD> integrals:      0.682 (MW) /      5.458 (MB)
	Size of irrep 2 of <AB|CD> integrals:      0.733 (MW) /      5.862 (MB)
	Size of irrep 3 of <AB|CD> integrals:      1.073 (MW) /      8.586 (MB)
	Total:                                     3.535 (MW) /     28.279 (MB)

	Size of irrep 0 of <ab|cd> integrals:      1.047 (MW) /      8.372 (MB)
	Size of irrep 1 of <ab|cd> integrals:      0.682 (MW) /      5.458 (MB)
	Size of irrep 2 of <ab|cd> integrals:      0.733 (MW) /      5.862 (MB)
	Size of irrep 3 of <ab|cd> integrals:      1.073 (MW) /      8.586 (MB)
	Total:                                     3.535 (MW) /     28.279 (MB)

	Size of irrep 0 of <Ab|Cd> integrals:      4.550 (MW) /     36.398 (MB)
	Size of irrep 1 of <Ab|Cd> integrals:      2.729 (MW) /     21.833 (MB)
	Size of irrep 2 of <Ab|Cd> integrals:      2.931 (MW) /     23.448 (MB)
	Size of irrep 3 of <Ab|Cd> integrals:      4.293 (MW) /     34.345 (MB)
	Total:                                    14.503 (MW) /    116.023 (MB)

	Size of irrep 0 of <IA|BC> integrals:      0.228 (MW) /      1.826 (MB)
	Size of irrep 1 of <IA|BC> integrals:      0.111 (MW) /      0.885 (MB)
	Size of irrep 2 of <IA|BC> integrals:      0.134 (MW) /      1.068 (MB)
	Size of irrep 3 of <IA|BC> integrals:      0.199 (MW) /      1.591 (MB)
	Total:                                     0.671 (MW) /      5.371 (MB)

	Size of irrep 0 of <ia|bc> integrals:      0.228 (MW) /      1.826 (MB)
	Size of irrep 1 of <ia|bc> integrals:      0.111 (MW) /      0.885 (MB)
	Size of irrep 2 of <ia|bc> integrals:      0.134 (MW) /      1.068 (MB)
	Size of irrep 3 of <ia|bc> integrals:      0.199 (MW) /      1.591 (MB)
	Total:                                     0.671 (MW) /      5.371 (MB)

	Size of irrep 0 of <Ia|Bc> integrals:      0.228 (MW) /      1.826 (MB)
	Size of irrep 1 of <Ia|Bc> integrals:      0.111 (MW) /      0.885 (MB)
	Size of irrep 2 of <Ia|Bc> integrals:      0.134 (MW) /      1.068 (MB)
	Size of irrep 3 of <Ia|Bc> integrals:      0.199 (MW) /      1.591 (MB)
	Total:                                     0.671 (MW) /      5.371 (MB)

	Size of irrep 0 of <iA|bC> integrals:      0.228 (MW) /      1.826 (MB)
	Size of irrep 1 of <iA|bC> integrals:      0.111 (MW) /      0.885 (MB)
	Size of irrep 2 of <iA|bC> integrals:      0.134 (MW) /      1.068 (MB)
	Size of irrep 3 of <iA|bC> integrals:      0.199 (MW) /      1.591 (MB)
	Total:                                     0.671 (MW) /      5.371 (MB)

	Size of irrep 0 of tIjAb amplitudes:       0.013 (MW) /      0.102 (MB)
	Size of irrep 1 of tIjAb amplitudes:       0.003 (MW) /      0.026 (MB)
	Size of irrep 2 of tIjAb amplitudes:       0.007 (MW) /      0.055 (MB)
	Size of irrep 3 of tIjAb amplitudes:       0.008 (MW) /      0.066 (MB)
	Total:                                     0.031 (MW) /      0.250 (MB)

	Nuclear Rep. energy          =      9.13623212868665
	SCF energy                   =    -76.05987309999705
	One-electron energy          =    -41.46917243528623
	Two-electron (AA) energy     =      3.41628170473875
	Two-electron (BB) energy     =      3.41628170473876
	Two-electron (AB) energy     =     10.74201251912678
	Two-electron energy          =     17.57457592860428
	Reference energy             =    -76.05987309999695

*** tstop() called on c5-20.compute.lan at Mon Mar  8 09:41:28 2021
Module time:
	user time   =       2.57 seconds =       0.04 minutes
	system time =       2.63 seconds =       0.04 minutes
	total time  =          6 seconds =       0.10 minutes
Total time:
	user time   =      23.61 seconds =       0.39 minutes
	system time =       3.13 seconds =       0.05 minutes
	total time  =         10 seconds =       0.17 minutes
            **************************
            *                        *
            *        CCENERGY        *
            *                        *
            **************************

    Nuclear Rep. energy (wfn)     =    9.136232128686647
    SCF energy          (wfn)     =  -76.059873099997048
    Reference energy    (file100) =  -76.059873099996949

    Input parameters:
    -----------------
    Wave function   =     CCSD_T
    Reference wfn   =     UHF
    Brueckner       =     No
    Memory (Mbytes) =     4000.0
    Maxiter         =     50
    R_Convergence   =     1.0e-10
    E_Convergence   =     1.0e-10
    Restart         =     Yes
    DIIS            =     Yes
    AO Basis        =     NONE
    ABCD            =     NEW
    Cache Level     =     2
    Cache Type      =     LRU
    Print Level     =     1
    Num. of threads =     12
    # Amps to Print =     10
    Print MP2 Amps? =     No
    Analyze T2 Amps =     No
    Print Pair Ener =     No
    Local CC        =     No
    SCS-MP2         =     False
    SCSN-MP2        =     False
    SCS-CCSD        =     False

MP2 correlation energy -0.2690494814232786
                Solving CC Amplitude Equations
                ------------------------------
  Iter             Energy              RMS        T1Diag      D1Diag    New D1Diag    D2Diag
  ----     ---------------------    ---------   ----------  ----------  ----------   --------
     0        -0.269049481423279    0.000e+00    0.000000    0.000000    0.000000    0.000000
     1        -0.267445089723921    4.795e-02    0.012169    0.000000    0.000000    0.000000
     2        -0.272561901023162    1.324e-02    0.011944    0.000000    0.000000    0.000000
     3        -0.273792701193277    6.224e-03    0.013815    0.000000    0.000000    0.000000
     4        -0.273687461878068    1.254e-03    0.014140    0.000000    0.000000    0.000000
     5        -0.273671129635605    4.613e-04    0.014273    0.000000    0.000000    0.000000
     6        -0.273671972469175    1.148e-04    0.014304    0.000000    0.000000    0.000000
     7        -0.273670733987890    3.877e-05    0.014309    0.000000    0.000000    0.000000
     8        -0.273670775444101    1.057e-05    0.014311    0.000000    0.000000    0.000000
     9        -0.273670818419130    3.207e-06    0.014312    0.000000    0.000000    0.000000
    10        -0.273670698562424    1.280e-06    0.014312    0.000000    0.000000    0.000000
    11        -0.273670715036040    4.383e-07    0.014312    0.000000    0.000000    0.000000
    12        -0.273670709832001    1.665e-07    0.014312    0.000000    0.000000    0.000000
    13        -0.273670711542354    4.963e-08    0.014312    0.000000    0.000000    0.000000
    14        -0.273670712716786    1.318e-08    0.014312    0.000000    0.000000    0.000000
    15        -0.273670712769558    3.977e-09    0.014312    0.000000    0.000000    0.000000
    16        -0.273670712773947    1.209e-09    0.014312    0.000000    0.000000    0.000000
    17        -0.273670712783543    4.139e-10    0.014312    0.000000    0.000000    0.000000
    18        -0.273670712780895    1.080e-10    0.014312    0.000000    0.000000    0.000000
    19        -0.273670712780644    3.255e-11    0.014312    0.000000    0.000000    0.000000

    Iterations converged.


    Largest TIA Amplitudes:
              2  44        -0.0152204220
              2  45        -0.0131604881
              1   1         0.0084613901
              1   4        -0.0076908463
              3  73         0.0054461588
              2  54         0.0042856404
              3  69         0.0038234931
              3  80         0.0036664727
              2  47        -0.0036494561
              1  23         0.0033960600

    Largest Tia Amplitudes:
              2  44        -0.0152204220
              2  45        -0.0131604881
              1   1         0.0084613901
              1   4        -0.0076908463
              3  73         0.0054461588
              2  54         0.0042856404
              3  69         0.0038234931
              3  80         0.0036664727
              2  47        -0.0036494561
              1  23         0.0033960600

    Largest TIJAB Amplitudes:
      2   1  46   7        -0.0096059842
      3   1  66   6        -0.0094165646
      3   2  33   6        -0.0083898446
      3   1  65   9         0.0080603473
      2   1  49   9         0.0079041838
      3   2  65  49        -0.0077228295
      3   1  66  13         0.0074749546
      3   2  65  44        -0.0074666492
      3   2  65  45        -0.0072268223
      2   1  48   9         0.0070737099

    Largest Tijab Amplitudes:
      2   1  46   7        -0.0096059842
      3   1  66   6        -0.0094165646
      3   2  33   6        -0.0083898446
      3   1  65   9         0.0080603473
      2   1  49   9         0.0079041838
      3   2  65  49        -0.0077228295
      3   1  66  13         0.0074749546
      3   2  65  44        -0.0074666492
      3   2  65  45        -0.0072268223
      2   1  48   9         0.0070737099

    Largest TIjAb Amplitudes:
      3   3  65  65        -0.0221038202
      1   1   9   9        -0.0195582536
      2   2  49  49        -0.0157846572
      3   3  65  69        -0.0157493621
      3   3  69  65        -0.0157493621
      3   3  66  66        -0.0148949428
      1   1  66  66        -0.0137078236
      2   2  48  48        -0.0133126413
      3   3  69  69        -0.0131850371
      1   3   9  65         0.0128060744

    SCF energy       (wfn)                    =  -76.059873099997048
    Reference energy (file100)                =  -76.059873099996949

    Opposite-spin MP2 correlation energy      =   -0.203744492025907
    Same-spin MP2 correlation energy          =   -0.065304989397371
    MP2 correlation energy                    =   -0.269049481423279
      * MP2 total energy                      =  -76.328922581420230

    Opposite-spin CCSD correlation energy     =   -0.215737692731741
    Same-spin CCSD correlation energy         =   -0.057933020048903
    CCSD correlation energy                   =   -0.273670712780644
      * CCSD total energy                     =  -76.333543812777592

            **************************
            *                        *
            *        CCTRIPLES       *
            *                        *
            **************************


    Wave function   =    CCSD_T
    Reference wfn   =      UHF

    Nuclear Rep. energy (wfn)                =    9.136232128686647
    SCF energy          (wfn)                =  -76.059873099997048
    Reference energy    (file100)            =  -76.059873099996949
    CCSD energy         (file100)            =   -0.273670712780644
    Total CCSD energy   (file100)            =  -76.333543812777592

    Number of ijk index combinations:
    Spin Case AAA:                                   4
    Spin Case BBB:                                   4
    Spin Case AAB:                                  24
    Spin Case ABB:                                  24
    AAA (T) energy                             =   -0.000194045120217
    BBB (T) energy                             =   -0.000194045120217
    AAB (T) energy                             =   -0.004159080459022
    ABB (T) energy                             =   -0.004159080459022
    (T) energy                                   =   -0.008706251158478
      * CCSD(T) total energy                     =  -76.342250063936078

Stephenergy -76.34225006393608
    Psi4 stopped on: Monday, 08 March 2021 09:41AM
    Psi4 wall time for execution: 0:00:19.24

*** Psi4 exiting successfully. Buy a developer a beer!
