
    -----------------------------------------------------------------------
          Psi4: An Open-Source Ab Initio Electronic Structure Package
                               Psi4 1.3.2 release

                         Git: Rev {HEAD} ecbda83 


    R. M. Parrish, L. A. Burns, D. G. A. Smith, A. C. Simmonett,
    A. E. DePrince III, E. G. Hohenstein, U. Bozkaya, A. Yu. Sokolov,
    R. Di Remigio, R. M. Richard, J. F. Gonthier, A. M. James,
    H. R. McAlexander, A. Kumar, M. Saitow, X. Wang, B. P. Pritchard,
    P. Verma, H. F. Schaefer III, K. Patkowski, R. A. King, E. F. Valeev,
    F. A. Evangelista, J. M. Turney, T. D. Crawford, and C. D. Sherrill,
    J. Chem. Theory Comput. 13(7) pp 3185--3197 (2017).
    (doi: 10.1021/acs.jctc.7b00174)


                         Additional Contributions by
    P. Kraus, H. Kruse, M. H. Lechner, M. C. Schieber, R. A. Shaw,
    A. Alenaizan, R. Galvelis, Z. L. Glick, S. Lehtola, and J. P. Misiewicz

    -----------------------------------------------------------------------


    Psi4 started on: Wednesday, 10 March 2021 09:12AM

    Process ID: 37947
    Host:       c4-16.compute.lan
    PSIDATADIR: /apps/gb/PSI4/1.3.2/share/psi4
    Memory:     500.0 MiB
    Threads:    12
    
  ==> Input File <==

--------------------------------------------------------------------------
memory 4 GB

molecule  {
0 3
O    0.000000000000    0.000000000000   -1.233251413313
H    0.000000000000   -0.760529345832   -0.642434710413
H   -0.000000000000    0.760529345832   -0.642434710413
O    0.000000000000    0.000000000000    1.314209867687
}
set {
basis aug-cc-pvtz
reference uhf
e_convergence 10
scf_type pk
freeze_core true
}

set ccenergy {
e_convergence 10
r_convergence 10
}

e = energy('ccsd(t)')

print_out('Stephenergy {}'.format(e))

--------------------------------------------------------------------------

  Memory set to   3.725 GiB by Python driver.

*** tstart() called on c4-16.compute.lan
*** at Wed Mar 10 09:12:53 2021

   => Loading Basis Set <=

    Name: AUG-CC-PVTZ
    Role: ORBITAL
    Keyword: BASIS
    atoms 1, 4 entry O          line   327 file /apps/gb/PSI4/1.3.2/share/psi4/basis/aug-cc-pvtz.gbs 
    atoms 2-3  entry H          line    36 file /apps/gb/PSI4/1.3.2/share/psi4/basis/aug-cc-pvtz.gbs 


         ---------------------------------------------------------
                                   SCF
               by Justin Turney, Rob Parrish, Andy Simmonett
                          and Daniel G. A. Smith
                              UHF Reference
                       12 Threads,   3814 MiB Core
         ---------------------------------------------------------

  ==> Geometry <==

    Molecular point group: c2v
    Full point group: C2v

    Geometry (in Angstrom), charge = 0, multiplicity = 3:

       Center              X                  Y                   Z               Mass       
    ------------   -----------------  -----------------  -----------------  -----------------
         O           -0.000000000000     0.000000000000    -1.233251413313    15.994914619570
         H            0.000000000000    -0.760529345832    -0.642434710413     1.007825032230
         H           -0.000000000000     0.760529345832    -0.642434710413     1.007825032230
         O           -0.000000000000     0.000000000000     1.314209867687    15.994914619570

  Running in c2v symmetry.

  Rotational constants: A =     14.45937  B =      0.31937  C =      0.31247 [cm^-1]
  Rotational constants: A = 433481.04306  B =   9574.42048  C =   9367.51743 [MHz]
  Nuclear repulsion =   26.467377365382152

  Charge       = 0
  Multiplicity = 3
  Electrons    = 18
  Nalpha       = 10
  Nbeta        = 8

  ==> Algorithm <==

  SCF Algorithm Type is PK.
  DIIS enabled.
  MOM disabled.
  Fractional occupation disabled.
  Guess Type is SAD.
  Energy threshold   = 1.00e-10
  Density threshold  = 1.00e-08
  Integral threshold = 0.00e+00

  ==> Primary Basis <==

  Basis Set: AUG-CC-PVTZ
    Blend: AUG-CC-PVTZ
    Number of shells: 46
    Number of basis function: 138
    Number of Cartesian functions: 160
    Spherical Harmonics?: true
    Max angular momentum: 3

  ==> Pre-Iterations <==

   -------------------------------------------------------
    Irrep   Nso     Nmo     Nalpha   Nbeta   Ndocc  Nsocc
   -------------------------------------------------------
     A1        54      54       0       0       0       0
     A2        17      17       0       0       0       0
     B1        29      29       0       0       0       0
     B2        38      38       0       0       0       0
   -------------------------------------------------------
    Total     138     138      10       8       8       2
   -------------------------------------------------------

  ==> Integral Setup <==

  Using in-core PK algorithm.
   Calculation information:
      Number of atoms:                   4
      Number of AO shells:              46
      Number of primitives:             82
      Number of atomic orbitals:       160
      Number of basis functions:       138

      Integral cutoff                 1.00e-12
      Number of threads:                12

  Performing in-core PK
  Using 91996872 doubles for integral storage.
  We computed 946720 shell quartets total.
  Whereas there are 584821 unique shell quartets.
    61.88 percent of shell quartets recomputed by reordering.

  ==> DiskJK: Disk-Based J/K Matrices <==

    J tasked:                  Yes
    K tasked:                  Yes
    wK tasked:                  No
    Memory [MiB]:             2861
    Schwarz Cutoff:          1E-12

    OpenMP threads:             12

  Minimum eigenvalue in the overlap matrix is 3.3821831507E-04.
  Using Symmetric Orthogonalization.

  SCF Guess: Superposition of Atomic Densities via on-the-fly atomic UHF.

  ==> Iterations <==

                        Total Energy        Delta E     RMS |[F,P]|

   @UHF iter SAD:  -149.45966201662145   -1.49460e+02   0.00000e+00 
   @UHF iter   1:  -150.75314171563411   -1.29348e+00   6.68878e-03 DIIS
   @UHF iter   2:  -150.82972077489239   -7.65791e-02   4.23440e-03 DIIS
   @UHF iter   3:  -150.86332442010217   -3.36036e-02   6.80817e-04 DIIS
   @UHF iter   4:  -150.86585691807704   -2.53250e-03   1.85544e-04 DIIS
   @UHF iter   5:  -150.86605749487234   -2.00577e-04   7.81785e-05 DIIS
   @UHF iter   6:  -150.86610142110538   -4.39262e-05   2.85410e-05 DIIS
   @UHF iter   7:  -150.86610790344361   -6.48234e-06   9.89341e-06 DIIS
   @UHF iter   8:  -150.86610874021579   -8.36772e-07   4.55686e-06 DIIS
   @UHF iter   9:  -150.86610895272861   -2.12513e-07   1.72399e-06 DIIS
   @UHF iter  10:  -150.86610898640345   -3.36748e-08   4.26953e-07 DIIS
   @UHF iter  11:  -150.86610898807794   -1.67449e-09   9.32400e-08 DIIS
   @UHF iter  12:  -150.86610898813177   -5.38307e-11   2.31039e-08 DIIS
   @UHF iter  13:  -150.86610898813530   -3.52429e-12   8.58041e-09 DIIS
  Energy and wave function converged.


  ==> Post-Iterations <==

   @Spin Contamination Metric:   1.000201160E-02
   @S^2 Expected:                2.000000000E+00
   @S^2 Observed:                2.010002012E+00
   @S   Expected:                1.000000000E+00
   @S   Observed:                1.000000000E+00

    Orbital Energies [Eh]
    ---------------------

    Alpha Occupied:                                                       

       1A1   -20.735317     2A1   -20.567761     3A1    -1.449888  
       4A1    -1.353931     5A1    -0.748731     1B1    -0.737304  
       1B2    -0.718683     2B2    -0.636724     6A1    -0.580807  
       2B1    -0.511214  

    Alpha Virtual:                                                        

       7A1     0.036787     3B2     0.050243     8A1     0.118793  
       3B1     0.130500     9A1     0.156253     4B2     0.166036  
       4B1     0.190383     5B2     0.191175    10A1     0.193043  
       1A2     0.263389    11A1     0.263884     6B2     0.275698  
      12A1     0.291166     5B1     0.337396     7B2     0.395163  
      13A1     0.406951    14A1     0.453814     8B2     0.475503  
       9B2     0.630696     2A2     0.647436     6B1     0.653043  
      15A1     0.659375    16A1     0.687807    17A1     0.711780  
       3A2     0.723214    18A1     0.735610    10B2     0.767557  
       7B1     0.791300     8B1     0.844466    19A1     0.886085  
      11B2     0.889249     9B1     0.922622    12B2     0.944995  
      20A1     0.981899     4A2     0.986617    21A1     1.023166  
      10B1     1.032184    13B2     1.059667    22A1     1.084468  
      14B2     1.135877    23A1     1.150754     5A2     1.211140  
      11B1     1.226192    24A1     1.246001    15B2     1.248168  
      16B2     1.447090     6A2     1.510966    25A1     1.571881  
      12B1     1.578491    17B2     1.755053    26A1     1.810975  
      27A1     1.858349    18B2     1.946212    13B1     2.005583  
      28A1     2.036533    14B1     2.042101     7A2     2.076472  
      19B2     2.082492    29A1     2.093935    30A1     2.173784  
      15B1     2.178357     8A2     2.195566    31A1     2.214441  
      20B2     2.220804     9A2     2.376345    32A1     2.394094  
      16B1     2.438240    21B2     2.459686    33A1     2.470650  
      17B1     2.511867    22B2     2.517632    34A1     2.554147  
      18B1     2.733141    23B2     2.755665    35A1     2.756428  
      10A2     2.882188    36A1     2.892834    24B2     2.953964  
      25B2     3.684341    37A1     3.836093    11A2     4.032850  
      19B1     4.078537    20B1     4.108517    38A1     4.212401  
      26B2     4.235680    21B1     4.313459    27B2     4.332680  
      12A2     4.380095    22B1     4.447891    39A1     4.487232  
      40A1     4.571716    28B2     4.672844    41A1     4.751306  
      29B2     4.908575    13A2     5.152104    30B2     5.157271  
      31B2     5.269344    42A1     5.365908    23B1     5.513811  
      43A1     5.691412    44A1     6.232799    24B1     6.392402  
      32B2     6.402080    25B1     6.435031    14A2     6.452740  
      45A1     6.471911    33B2     6.532877    46A1     6.610634  
      34B2     6.729122    26B1     6.770817    47A1     6.879011  
      27B1     6.880796    15A2     6.895365    48A1     6.963533  
      49A1     6.989634    35B2     7.012831    28B1     7.169416  
      29B1     7.259122    16A2     7.307045    17A2     7.358270  
      36B2     7.373451    50A1     7.381397    51A1     7.597350  
      37B2     7.947207    52A1     7.989578    38B2     8.794334  
      53A1     9.936269    54A1    15.757767  

    Beta Occupied:                                                        

       1A1   -20.656410     2A1   -20.566109     3A1    -1.350770  
       4A1    -1.105769     1B2    -0.716474     5A1    -0.580570  
       2B2    -0.547627     1B1    -0.508793  

    Beta Virtual:                                                         

       6A1     0.037749     2B1     0.046162     3B2     0.050598  
       7A1     0.052593     8A1     0.142112     3B1     0.159803  
       4B2     0.167962     9A1     0.181409     5B2     0.193472  
      10A1     0.194691     4B1     0.226307     1A2     0.263677  
      11A1     0.267090     6B2     0.275983    12A1     0.299274  
       5B1     0.346229     7B2     0.397481    13A1     0.433650  
      14A1     0.459161     8B2     0.475662     9B2     0.630376  
       2A2     0.661753     6B1     0.671928    15A1     0.674159  
      16A1     0.711885    17A1     0.715304     3A2     0.723510  
      10B2     0.783656    18A1     0.788794     7B1     0.824623  
      19A1     0.895827    11B2     0.901595     8B1     0.920325  
       9B1     0.935664    12B2     0.949751     4A2     0.988559  
      20A1     0.988880    21A1     1.036023    13B2     1.060370  
      10B1     1.060926    22A1     1.111009    14B2     1.145226  
      23A1     1.207513     5A2     1.212346    15B2     1.248543  
      11B1     1.248609    24A1     1.257255    16B2     1.453502  
       6A2     1.511127    12B1     1.579330    25A1     1.590802  
      17B2     1.760562    26A1     1.816212    27A1     1.900936  
      18B2     1.949040    13B1     2.029845    19B2     2.097280  
      28A1     2.101137    14B1     2.110765    29A1     2.144258  
       7A2     2.147818     8A2     2.222526    30A1     2.233207  
      31A1     2.244408    15B1     2.260634    20B2     2.291329  
       9A2     2.385209    32A1     2.421356    16B1     2.466324  
      21B2     2.474495    33A1     2.494192    17B1     2.513250  
      22B2     2.525800    34A1     2.566684    18B1     2.734337  
      23B2     2.759119    35A1     2.770173    10A2     2.882659  
      36A1     2.901700    24B2     2.956405    25B2     3.685089  
      37A1     3.845638    11A2     4.032396    19B1     4.109139  
      20B1     4.229066    38A1     4.249109    26B2     4.253871  
      21B1     4.328930    27B2     4.357732    12A2     4.379710  
      22B1     4.452533    39A1     4.513518    40A1     4.663145  
      28B2     4.675458    41A1     4.753953    29B2     4.910441  
      13A2     5.152333    30B2     5.158756    31B2     5.270760  
      42A1     5.368952    23B1     5.514363    43A1     5.693048  
      44A1     6.238053    24B1     6.449105    32B2     6.459699  
      14A2     6.528812    33B2     6.535610    25B1     6.541224  
      45A1     6.547564    46A1     6.688637    26B1     6.773816  
      34B2     6.792801    47A1     6.962658    15A2     7.008044  
      48A1     7.017075    27B1     7.064936    49A1     7.118043  
      35B2     7.121576    28B1     7.172254    29B1     7.262691  
      16A2     7.308386    17A2     7.359611    36B2     7.374889  
      50A1     7.392647    51A1     7.603543    37B2     7.948895  
      52A1     7.993299    38B2     8.796607    53A1    10.007095  
      54A1    15.758910  

    Final Occupation by Irrep:
             A1    A2    B1    B2 
    DOCC [     5,    0,    1,    2 ]
    SOCC [     1,    0,    1,    0 ]

  @UHF Final Energy:  -150.86610898813530

   => Energetics <=

    Nuclear Repulsion Energy =             26.4673773653821520
    One-Electron Energy =                -260.5940894147641984
    Two-Electron Energy =                  83.2606030612467407
    Total Energy =                       -150.8661089881352950

  UHF NO Occupations:
  HONO-2 :    5 A1 1.9970598
  HONO-1 :    6 A1 1.0000000
  HONO-0 :    2 B1 1.0000000
  LUNO+0 :    7 A1 0.0029402
  LUNO+1 :    3 B2 0.0017583
  LUNO+2 :    8 A1 0.0002826
  LUNO+3 :    3 B1 0.0000176


Computation Completed


Properties will be evaluated at   0.000000,   0.000000,   0.000000 [a0]

Properties computed using the SCF density matrix

  Nuclear Dipole Moment: [e a0]
     X:    -0.0000      Y:     0.0000      Z:    -1.2041

  Electronic Dipole Moment: [e a0]
     X:     0.0000      Y:     0.0000      Z:     2.0226

  Dipole Moment: [e a0]
     X:    -0.0000      Y:     0.0000      Z:     0.8185     Total:     0.8185

  Dipole Moment: [D]
     X:    -0.0000      Y:     0.0000      Z:     2.0803     Total:     2.0803


*** tstop() called on c4-16.compute.lan at Wed Mar 10 09:12:59 2021
Module time:
	user time   =      51.76 seconds =       0.86 minutes
	system time =       0.72 seconds =       0.01 minutes
	total time  =          6 seconds =       0.10 minutes
Total time:
	user time   =      51.76 seconds =       0.86 minutes
	system time =       0.72 seconds =       0.01 minutes
	total time  =          6 seconds =       0.10 minutes
 MINTS: Wrapper to libmints.
   by Justin Turney

   Calculation information:
      Number of threads:                12
      Number of atoms:                   4
      Number of AO shells:              46
      Number of SO shells:              37
      Number of primitives:             82
      Number of atomic orbitals:       160
      Number of basis functions:       138

      Number of irreps:                  4
      Integral cutoff                 0.00e+00
      Number of functions per irrep: [  54   17   29   38 ]

 OEINTS: Overlap, kinetic, potential, dipole, and quadrupole integrals
         stored in file 35.

      Computing two-electron integrals...done
      Computed 11507646 non-zero two-electron integrals.
        Stored in file 33.


*** tstart() called on c4-16.compute.lan
*** at Wed Mar 10 09:13:01 2021


	Wfn Parameters:
	--------------------
	Wavefunction         = CCSD_T
	Number of irreps     = 4
	Number of MOs        = 138
	Number of active MOs = 136
	AO-Basis             = NONE
	Semicanonical        = false
	Reference            = UHF
	Print Level          = 1

	IRREP	# MOs	# FZDC	# DOCC	# SOCC	# VIRT	# FZVR
	-----	-----	------	------	------	------	------
	 A1	   54	    2	    3	    1	    48	    0
	 A2	   17	    0	    0	    0	    17	    0
	 B1	   29	    0	    1	    1	    27	    0
	 B2	   38	    0	    2	    0	    36	    0
	Transforming integrals...
	IWL integrals will be deleted.
	(OO|OO)...
	Presorting SO-basis two-electron integrals.
	Sorting File: SO Ints (nn|nn) nbuckets = 1
	Transforming the one-electron integrals and constructing Fock matrices
	Starting AA/AB first half-transformation.
	Sorting AA/AB half-transformed integrals.
	Starting BB first half-transformation.
	Sorting BB half-transformed integrals.
	First half integral transformation complete.
	Starting AA second half-transformation.
	Starting AB second half-transformation.
	Starting BB second half-transformation.
	Two-electron integral transformation complete.
	(OO|OV)...
	Starting AA second half-transformation.
	Starting AB second half-transformation.
	Starting BB second half-transformation.
	Two-electron integral transformation complete.
	(OO|VV)...
	Starting AA second half-transformation.
	Starting AB second half-transformation.
	Starting BB second half-transformation.
	Two-electron integral transformation complete.
	(OV|OO)...
	Starting AA/AB first half-transformation.
	Sorting AA/AB half-transformed integrals.
	Starting BB first half-transformation.
	Sorting BB half-transformed integrals.
	First half integral transformation complete.
	Starting AA second half-transformation.
	Starting AB second half-transformation.
	Starting BB second half-transformation.
	Two-electron integral transformation complete.
	(OV|OV)...
	Starting AA second half-transformation.
	Starting AB second half-transformation.
	Starting BB second half-transformation.
	Two-electron integral transformation complete.
	(OV|VV)...
	Starting AA second half-transformation.
	Starting AB second half-transformation.
	Starting BB second half-transformation.
	Two-electron integral transformation complete.
	(VV|OO)...
	Starting AA/AB first half-transformation.
	Sorting AA/AB half-transformed integrals.
	Starting BB first half-transformation.
	Sorting BB half-transformed integrals.
	First half integral transformation complete.
	Starting AA second half-transformation.
	Starting AB second half-transformation.
	Starting BB second half-transformation.
	Two-electron integral transformation complete.
	(VV|OV)...
	Starting AA second half-transformation.
	Starting AB second half-transformation.
	Starting BB second half-transformation.
	Two-electron integral transformation complete.
	(VV|VV)...
	Starting AA second half-transformation.
	Starting AB second half-transformation.
	Starting BB second half-transformation.
	Two-electron integral transformation complete.
	Frozen core energy     =   -127.23365493783258

	Size of irrep 0 of <AB|CD> integrals:      5.040 (MW) /     40.320 (MB)
	Size of irrep 1 of <AB|CD> integrals:      3.197 (MW) /     25.576 (MB)
	Size of irrep 2 of <AB|CD> integrals:      3.640 (MW) /     29.124 (MB)
	Size of irrep 3 of <AB|CD> integrals:      4.783 (MW) /     38.264 (MB)
	Total:                                    16.660 (MW) /    133.283 (MB)

	Size of irrep 0 of <ab|cd> integrals:      5.382 (MW) /     43.059 (MB)
	Size of irrep 1 of <ab|cd> integrals:      3.389 (MW) /     27.114 (MB)
	Size of irrep 2 of <ab|cd> integrals:      3.936 (MW) /     31.490 (MB)
	Size of irrep 3 of <ab|cd> integrals:      5.018 (MW) /     40.141 (MB)
	Total:                                    17.726 (MW) /    141.804 (MB)

	Size of irrep 0 of <Ab|Cd> integrals:     22.024 (MW) /    176.194 (MB)
	Size of irrep 1 of <Ab|Cd> integrals:     13.170 (MW) /    105.357 (MB)
	Size of irrep 2 of <Ab|Cd> integrals:     15.140 (MW) /    121.119 (MB)
	Size of irrep 3 of <Ab|Cd> integrals:     19.598 (MW) /    156.787 (MB)
	Total:                                    69.932 (MW) /    559.457 (MB)

	Size of irrep 0 of <IA|BC> integrals:      1.469 (MW) /     11.748 (MB)
	Size of irrep 1 of <IA|BC> integrals:      0.694 (MW) /      5.550 (MB)
	Size of irrep 2 of <IA|BC> integrals:      0.908 (MW) /      7.266 (MB)
	Size of irrep 3 of <IA|BC> integrals:      1.198 (MW) /      9.588 (MB)
	Total:                                     4.269 (MW) /     34.152 (MB)

	Size of irrep 0 of <ia|bc> integrals:      1.178 (MW) /      9.426 (MB)
	Size of irrep 1 of <ia|bc> integrals:      0.527 (MW) /      4.212 (MB)
	Size of irrep 2 of <ia|bc> integrals:      0.663 (MW) /      5.301 (MB)
	Size of irrep 3 of <ia|bc> integrals:      0.999 (MW) /      7.992 (MB)
	Total:                                     3.366 (MW) /     26.931 (MB)

	Size of irrep 0 of <Ia|Bc> integrals:      1.521 (MW) /     12.164 (MB)
	Size of irrep 1 of <Ia|Bc> integrals:      0.711 (MW) /      5.690 (MB)
	Size of irrep 2 of <Ia|Bc> integrals:      0.949 (MW) /      7.595 (MB)
	Size of irrep 3 of <Ia|Bc> integrals:      1.222 (MW) /      9.775 (MB)
	Total:                                     4.403 (MW) /     35.225 (MB)

	Size of irrep 0 of <iA|bC> integrals:      1.140 (MW) /      9.123 (MB)
	Size of irrep 1 of <iA|bC> integrals:      0.512 (MW) /      4.094 (MB)
	Size of irrep 2 of <iA|bC> integrals:      0.634 (MW) /      5.074 (MB)
	Size of irrep 3 of <iA|bC> integrals:      0.978 (MW) /      7.827 (MB)
	Total:                                     3.265 (MW) /     26.118 (MB)

	Size of irrep 0 of tIjAb amplitudes:       0.084 (MW) /      0.676 (MB)
	Size of irrep 1 of tIjAb amplitudes:       0.022 (MW) /      0.174 (MB)
	Size of irrep 2 of tIjAb amplitudes:       0.039 (MW) /      0.311 (MB)
	Size of irrep 3 of tIjAb amplitudes:       0.062 (MW) /      0.496 (MB)
	Total:                                     0.207 (MW) /      1.657 (MB)

	Nuclear Rep. energy          =     26.46737736538215
	SCF energy                   =   -150.86610898813530
	One-electron energy          =    -88.65237659391110
	Two-electron (AA) energy     =     10.86092704283420
	Two-electron (BB) energy     =      5.69900307206408
	Two-electron (AB) energy     =     21.99261506332444
	Two-electron energy          =     38.55254517822272
	Reference energy             =   -150.86610898813882

*** tstop() called on c4-16.compute.lan at Wed Mar 10 09:13:27 2021
Module time:
	user time   =      55.51 seconds =       0.93 minutes
	system time =      13.52 seconds =       0.23 minutes
	total time  =         26 seconds =       0.43 minutes
Total time:
	user time   =     113.27 seconds =       1.89 minutes
	system time =      14.64 seconds =       0.24 minutes
	total time  =         34 seconds =       0.57 minutes
            **************************
            *                        *
            *        CCENERGY        *
            *                        *
            **************************

    Nuclear Rep. energy (wfn)     =   26.467377365382152
    SCF energy          (wfn)     = -150.866108988135295
    Reference energy    (file100) = -150.866108988138819

    Input parameters:
    -----------------
    Wave function   =     CCSD_T
    Reference wfn   =     UHF
    Brueckner       =     No
    Memory (Mbytes) =     4000.0
    Maxiter         =     50
    R_Convergence   =     1.0e-10
    E_Convergence   =     1.0e-10
    Restart         =     Yes
    DIIS            =     Yes
    AO Basis        =     NONE
    ABCD            =     NEW
    Cache Level     =     2
    Cache Type      =     LRU
    Print Level     =     1
    Num. of threads =     12
    # Amps to Print =     10
    Print MP2 Amps? =     No
    Analyze T2 Amps =     No
    Print Pair Ener =     No
    Local CC        =     No
    SCS-MP2         =     False
    SCSN-MP2        =     False
    SCS-CCSD        =     False

MP2 correlation energy -0.4191228387153562
                Solving CC Amplitude Equations
                ------------------------------
  Iter             Energy              RMS        T1Diag      D1Diag    New D1Diag    D2Diag
  ----     ---------------------    ---------   ----------  ----------  ----------   --------
     0        -0.419122838715356    0.000e+00    0.000000    0.000000    0.000000    0.000000
     1        -0.429623196505300    6.129e-02    0.012147    0.000000    0.000000    0.000000
     2        -0.437991242150847    1.865e-02    0.012868    0.000000    0.000000    0.000000
     3        -0.440336485934523    1.248e-02    0.015741    0.000000    0.000000    0.000000
     4        -0.440289739703829    4.824e-03    0.017066    0.000000    0.000000    0.000000
     5        -0.440252060013434    3.308e-03    0.017989    0.000000    0.000000    0.000000
     6        -0.440326259879402    1.282e-03    0.018433    0.000000    0.000000    0.000000
     7        -0.440336946502957    5.948e-04    0.018544    0.000000    0.000000    0.000000
     8        -0.440335899492511    2.271e-04    0.018596    0.000000    0.000000    0.000000
     9        -0.440339619205903    1.224e-04    0.018603    0.000000    0.000000    0.000000
    10        -0.440333879924440    6.348e-05    0.018618    0.000000    0.000000    0.000000
    11        -0.440334499504718    3.055e-05    0.018618    0.000000    0.000000    0.000000
    12        -0.440334309393951    1.205e-05    0.018620    0.000000    0.000000    0.000000
    13        -0.440334507684114    6.359e-06    0.018619    0.000000    0.000000    0.000000
    14        -0.440334730741905    2.546e-06    0.018619    0.000000    0.000000    0.000000
    15        -0.440334732165698    1.090e-06    0.018619    0.000000    0.000000    0.000000
    16        -0.440334738005179    4.779e-07    0.018619    0.000000    0.000000    0.000000
    17        -0.440334739697845    1.631e-07    0.018619    0.000000    0.000000    0.000000
    18        -0.440334737641815    8.160e-08    0.018619    0.000000    0.000000    0.000000
    19        -0.440334737523836    2.431e-08    0.018619    0.000000    0.000000    0.000000
    20        -0.440334737686771    1.162e-08    0.018619    0.000000    0.000000    0.000000
    21        -0.440334737553725    5.097e-09    0.018619    0.000000    0.000000    0.000000
    22        -0.440334737559229    1.820e-09    0.018619    0.000000    0.000000    0.000000
    23        -0.440334737575171    6.688e-10    0.018619    0.000000    0.000000    0.000000
    24        -0.440334737578014    2.153e-10    0.018619    0.000000    0.000000    0.000000
    25        -0.440334737578513    1.140e-10    0.018619    0.000000    0.000000    0.000000
    26        -0.440334737579834    4.420e-11    0.018619    0.000000    0.000000    0.000000

    Iterations converged.


    Largest TIA Amplitudes:
              5  67        -0.0142231104
              5  65        -0.0122697776
              4  65        -0.0089066457
              2   6        -0.0087684144
              7  94         0.0083316447
              7  93        -0.0077209198
              5  66        -0.0068217176
              2   2         0.0068194951
              2   1        -0.0057034566
              3   1         0.0056625122

    Largest Tia Amplitudes:
              2   1         0.0346486557
              3  66        -0.0262908547
              2   2         0.0166014002
              2   3        -0.0158314702
              3  69        -0.0121027143
              3  68        -0.0113020422
              5  96         0.0071944084
              2   6        -0.0060684664
              1  23         0.0055489497
              3  67        -0.0054680456

    Largest TIJAB Amplitudes:
      7   4  54  22        -0.0111832463
      7   4 100  70         0.0093345735
      6   3  98   9        -0.0085488020
      7   2 109  22        -0.0085155259
      7   4 100  69         0.0081096917
      7   2  99  11        -0.0077288912
      4   2  69  11         0.0076677669
      6   5  50  10        -0.0075306877
      6   5  97  72        -0.0074441136
      6   5  97  67        -0.0072194368

    Largest Tijab Amplitudes:
      4   2 100  10        -0.0088149307
      5   1  66  50         0.0087454770
      5   1 101   1         0.0080708633
      5   1 111   1        -0.0079068976
      5   1  66  55        -0.0077331983
      4   3  99  74        -0.0073143355
      4   3  99  69        -0.0071759474
      5   2  96   1         0.0067579731
      4   3  51  11        -0.0065134169
      4   3  99  72        -0.0064899737

    Largest TIjAb Amplitudes:
      7   1  54  66         0.0177271630
      5   3  72  74        -0.0171617295
      7   5 100 102        -0.0167062899
      7   1 109   1        -0.0166283116
      6   4  98 100        -0.0158785887
      6   4  97  99        -0.0157714808
      4   1  21  66         0.0153173813
      7   1  49  66        -0.0138577738
      6   4 102 104        -0.0133949574
      7   1  99   1         0.0133792685

    SCF energy       (wfn)                    = -150.866108988135295
    Reference energy (file100)                = -150.866108988138819

    Opposite-spin MP2 correlation energy      =   -0.316060242922709
    Same-spin MP2 correlation energy          =   -0.103062595792647
    MP2 correlation energy                    =   -0.419122838715356
      * MP2 total energy                      = -151.285231826854186

    Opposite-spin CCSD correlation energy     =   -0.343808383475591
    Same-spin CCSD correlation energy         =   -0.096526354104243
    CCSD correlation energy                   =   -0.440334737579834
      * CCSD total energy                     = -151.306443725718651

            **************************
            *                        *
            *        CCTRIPLES       *
            *                        *
            **************************


    Wave function   =    CCSD_T
    Reference wfn   =      UHF

    Nuclear Rep. energy (wfn)                =   26.467377365382152
    SCF energy          (wfn)                = -150.866108988135295
    Reference energy    (file100)            = -150.866108988138819
    CCSD energy         (file100)            =   -0.440334737579834
    Total CCSD energy   (file100)            = -151.306443725718651

    Number of ijk index combinations:
    Spin Case AAA:                                  56
    Spin Case BBB:                                  20
    Spin Case AAB:                                 168
    Spin Case ABB:                                 120
    AAA (T) energy                             =   -0.000412323399873
    BBB (T) energy                             =   -0.000241535090064
    AAB (T) energy                             =   -0.006950364224297
    ABB (T) energy                             =   -0.005294294530795
    (T) energy                                   =   -0.012898517245030
      * CCSD(T) total energy                     = -151.319342242963671

Stephenergy -151.31934224296367
    Psi4 stopped on: Wednesday, 10 March 2021 09:14AM
    Psi4 wall time for execution: 0:01:42.26

*** Psi4 exiting successfully. Buy a developer a beer!
