
    -----------------------------------------------------------------------
          Psi4: An Open-Source Ab Initio Electronic Structure Package
                               Psi4 1.3.2 release

                         Git: Rev {HEAD} ecbda83 


    R. M. Parrish, L. A. Burns, D. G. A. Smith, A. C. Simmonett,
    A. E. DePrince III, E. G. Hohenstein, U. Bozkaya, A. Yu. Sokolov,
    R. Di Remigio, R. M. Richard, J. F. Gonthier, A. M. James,
    H. R. McAlexander, A. Kumar, M. Saitow, X. Wang, B. P. Pritchard,
    P. Verma, H. F. Schaefer III, K. Patkowski, R. A. King, E. F. Valeev,
    F. A. Evangelista, J. M. Turney, T. D. Crawford, and C. D. Sherrill,
    J. Chem. Theory Comput. 13(7) pp 3185--3197 (2017).
    (doi: 10.1021/acs.jctc.7b00174)


                         Additional Contributions by
    P. Kraus, H. Kruse, M. H. Lechner, M. C. Schieber, R. A. Shaw,
    A. Alenaizan, R. Galvelis, Z. L. Glick, S. Lehtola, and J. P. Misiewicz

    -----------------------------------------------------------------------


    Psi4 started on: Tuesday, 09 March 2021 03:13PM

    Process ID: 31234
    Host:       c1-11.compute.lan
    PSIDATADIR: /apps/gb/PSI4/1.3.2/share/psi4
    Memory:     500.0 MiB
    Threads:    12
    
  ==> Input File <==

--------------------------------------------------------------------------
memory 4 GB

molecule  {
0 3
O   -1.520262879297   -0.028222428295    0.000000000000 
H   -0.556556299150   -0.003538089112    0.000000000000          
H   -1.780296936482    0.896888089079    0.000000000000
O    1.667505877683   -0.028066743228    0.000000000000
}
set {
basis aug-cc-pvtz
reference uhf
e_convergence 10
scf_type pk
freeze_core true
}

set ccenergy {
e_convergence 10
r_convergence 10
}

e = energy('ccsd(t)')

print_out('Stephenergy {}'.format(e))

--------------------------------------------------------------------------

  Memory set to   3.725 GiB by Python driver.

*** tstart() called on c1-11.compute.lan
*** at Tue Mar  9 15:13:30 2021

   => Loading Basis Set <=

    Name: AUG-CC-PVTZ
    Role: ORBITAL
    Keyword: BASIS
    atoms 1, 4 entry O          line   327 file /apps/gb/PSI4/1.3.2/share/psi4/basis/aug-cc-pvtz.gbs 
    atoms 2-3  entry H          line    36 file /apps/gb/PSI4/1.3.2/share/psi4/basis/aug-cc-pvtz.gbs 


         ---------------------------------------------------------
                                   SCF
               by Justin Turney, Rob Parrish, Andy Simmonett
                          and Daniel G. A. Smith
                              UHF Reference
                       12 Threads,   3814 MiB Core
         ---------------------------------------------------------

  ==> Geometry <==

    Molecular point group: cs
    Full point group: Cs

    Geometry (in Angstrom), charge = 0, multiplicity = 3:

       Center              X                  Y                   Z               Mass       
    ------------   -----------------  -----------------  -----------------  -----------------
         O           -1.520262879297    -0.028222428295     0.000000000000    15.994914619570
         H           -0.556556299150    -0.003538089112     0.000000000000     1.007825032230
         H           -1.780296936482     0.896888089079     0.000000000000     1.007825032230
         O            1.667505877683    -0.028066743228     0.000000000000    15.994914619570

  Running in cs symmetry.

  Rotational constants: A =     20.99516  B =      0.19837  C =      0.19651 [cm^-1]
  Rotational constants: A = 629418.92961  B =   5946.88981  C =   5891.22818 [MHz]
  Nuclear repulsion =   22.858530570167126

  Charge       = 0
  Multiplicity = 3
  Electrons    = 18
  Nalpha       = 10
  Nbeta        = 8

  ==> Algorithm <==

  SCF Algorithm Type is PK.
  DIIS enabled.
  MOM disabled.
  Fractional occupation disabled.
  Guess Type is SAD.
  Energy threshold   = 1.00e-10
  Density threshold  = 1.00e-08
  Integral threshold = 0.00e+00

  ==> Primary Basis <==

  Basis Set: AUG-CC-PVTZ
    Blend: AUG-CC-PVTZ
    Number of shells: 46
    Number of basis function: 138
    Number of Cartesian functions: 160
    Spherical Harmonics?: true
    Max angular momentum: 3

  ==> Pre-Iterations <==

   -------------------------------------------------------
    Irrep   Nso     Nmo     Nalpha   Nbeta   Ndocc  Nsocc
   -------------------------------------------------------
     A'        92      92       0       0       0       0
     A"        46      46       0       0       0       0
   -------------------------------------------------------
    Total     138     138      10       8       8       2
   -------------------------------------------------------

  ==> Integral Setup <==

  Using in-core PK algorithm.
   Calculation information:
      Number of atoms:                   4
      Number of AO shells:              46
      Number of primitives:             82
      Number of atomic orbitals:       160
      Number of basis functions:       138

      Integral cutoff                 1.00e-12
      Number of threads:                12

  Performing in-core PK
  Using 91996872 doubles for integral storage.
  We computed 905872 shell quartets total.
  Whereas there are 584821 unique shell quartets.
    54.90 percent of shell quartets recomputed by reordering.

  ==> DiskJK: Disk-Based J/K Matrices <==

    J tasked:                  Yes
    K tasked:                  Yes
    wK tasked:                  No
    Memory [MiB]:             2861
    Schwarz Cutoff:          1E-12

    OpenMP threads:             12

  Minimum eigenvalue in the overlap matrix is 3.0183137931E-04.
  Using Symmetric Orthogonalization.

  SCF Guess: Superposition of Atomic Densities via on-the-fly atomic UHF.

  ==> Iterations <==

                        Total Energy        Delta E     RMS |[F,P]|

   @UHF iter SAD:  -149.40081017372194   -1.49401e+02   0.00000e+00 
   @UHF iter   1:  -150.76355880983934   -1.36275e+00   5.05098e-03 DIIS
   @UHF iter   2:  -150.83789898233573   -7.43402e-02   3.28014e-03 DIIS
   @UHF iter   3:  -150.87307636520032   -3.51774e-02   3.93278e-04 DIIS
   @UHF iter   4:  -150.87419171249246   -1.11535e-03   1.30755e-04 DIIS
   @UHF iter   5:  -150.87431850606046   -1.26794e-04   5.10927e-05 DIIS
   @UHF iter   6:  -150.87435227815618   -3.37721e-05   1.49446e-05 DIIS
   @UHF iter   7:  -150.87435552966056   -3.25150e-06   4.05908e-06 DIIS
   @UHF iter   8:  -150.87435587025419   -3.40594e-07   2.26165e-06 DIIS
   @UHF iter   9:  -150.87435604451846   -1.74264e-07   2.07063e-06 DIIS
   @UHF iter  10:  -150.87435623159004   -1.87072e-07   2.03896e-06 DIIS
   @UHF iter  11:  -150.87435673607487   -5.04485e-07   1.98916e-06 DIIS
   @UHF iter  12:  -150.87435830735956   -1.57128e-06   1.85454e-06 DIIS
   @UHF iter  13:  -150.87436163426730   -3.32691e-06   1.53833e-06 DIIS
   @UHF iter  14:  -150.87436512093785   -3.48667e-06   1.58947e-06 DIIS
   @UHF iter  15:  -150.87436512914206   -8.20421e-09   1.46890e-06 DIIS
   @UHF iter  16:  -150.87436653430174   -1.40516e-06   1.47414e-06 DIIS
   @UHF iter  17:  -150.87436655931501   -2.50133e-08   8.35580e-08 DIIS
   @UHF iter  18:  -150.87436656481469   -5.49969e-09   3.25335e-07 DIIS
   @UHF iter  19:  -150.87436656538085   -5.66160e-10   3.63723e-08 DIIS
   @UHF iter  20:  -150.87436656538785   -6.99174e-12   1.64088e-08 DIIS
   @UHF iter  21:  -150.87436656538947   -1.62004e-12   3.03081e-09 DIIS
  Energy and wave function converged.


  ==> Post-Iterations <==

   @Spin Contamination Metric:   9.366044556E-03
   @S^2 Expected:                2.000000000E+00
   @S^2 Observed:                2.009366045E+00
   @S   Expected:                1.000000000E+00
   @S   Observed:                1.000000000E+00

    Orbital Energies [Eh]
    ---------------------

    Alpha Occupied:                                                       

       1Ap   -20.734977     2Ap   -20.558537     3Ap    -1.444301  
       4Ap    -1.342578     5Ap    -0.734834     1App   -0.734683  
       6Ap    -0.709284     7Ap    -0.636914     8Ap    -0.574691  
       2App   -0.501574  

    Alpha Virtual:                                                        

       9Ap     0.034581    10Ap     0.053278    11Ap     0.127508  
       3App    0.131561    12Ap     0.148046    13Ap     0.161202  
      14Ap     0.183484     4App    0.186313    15Ap     0.211716  
      16Ap     0.241585    17Ap     0.271805     5App    0.282641  
      18Ap     0.293653     6App    0.323290    19Ap     0.371947  
      20Ap     0.393175    21Ap     0.460220    22Ap     0.559324  
       7App    0.600072    23Ap     0.608667    24Ap     0.643314  
      25Ap     0.668805    26Ap     0.712234     8App    0.713010  
       9App    0.734732    10App    0.747427    27Ap     0.766034  
      28Ap     0.798027    11App    0.824760    29Ap     0.851675  
      30Ap     0.865664    12App    0.883477    31Ap     0.923317  
      13App    0.942289    32Ap     0.944418    33Ap     0.956495  
      14App    0.983617    34Ap     0.985849    35Ap     1.043547  
      36Ap     1.128008    37Ap     1.168788    15App    1.177470  
      38Ap     1.193909    16App    1.261257    39Ap     1.272875  
      40Ap     1.324242    17App    1.528511    41Ap     1.556171  
      18App    1.600528    42Ap     1.690412    43Ap     1.819193  
      44Ap     1.826872    19App    1.975587    45Ap     1.975622  
      46Ap     1.995548    20App    2.011197    47Ap     2.017708  
      21App    2.048662    48Ap     2.060882    22App    2.122981  
      49Ap     2.164861    50Ap     2.166417    23App    2.211502  
      24App    2.295093    51Ap     2.302550    52Ap     2.328842  
      53Ap     2.415027    25App    2.449635    54Ap     2.462098  
      26App    2.524128    55Ap     2.535357    56Ap     2.631748  
      57Ap     2.670582    27App    2.729037    58Ap     2.751411  
      59Ap     2.864945    60Ap     2.941983    28App    2.946440  
      61Ap     3.699410    62Ap     3.893805    29App    4.035817  
      30App    4.058458    63Ap     4.076199    31App    4.172338  
      64Ap     4.199851    65Ap     4.273996    32App    4.298232  
      66Ap     4.377312    33App    4.393147    67Ap     4.436252  
      34App    4.439968    68Ap     4.578286    69Ap     4.783539  
      70Ap     4.962043    35App    5.154431    71Ap     5.181189  
      72Ap     5.305915    73Ap     5.373128    36App    5.526448  
      74Ap     5.689133    75Ap     6.197668    37App    6.310210  
      76Ap     6.310252    38App    6.372911    77Ap     6.375650  
      39App    6.520890    78Ap     6.526661    79Ap     6.556871  
      80Ap     6.635499    40App    6.724777    81Ap     6.812325  
      41App    6.818446    82Ap     6.914270    42App    6.933839  
      83Ap     6.967048    84Ap     7.049640    43App    7.146919  
      44App    7.275226    85Ap     7.322253    45App    7.326719  
      86Ap     7.359567    46App    7.441962    87Ap     7.657460  
      88Ap     7.945455    89Ap     7.966436    90Ap     8.810159  
      91Ap     9.397835    92Ap    16.515381  

    Beta Occupied:                                                        

       1Ap   -20.656196     2Ap   -20.558678     3Ap    -1.343185  
       4Ap    -1.101849     5Ap    -0.708266     6Ap    -0.581241  
       7Ap    -0.542161     1App   -0.501630  

    Beta Virtual:                                                         

       8Ap     0.034234     9Ap     0.046172     2App    0.047641  
      10Ap     0.057484    11Ap     0.144220    12Ap     0.151010  
       3App    0.160476    13Ap     0.179841    14Ap     0.210115  
      15Ap     0.218110     4App    0.225920    16Ap     0.251227  
      17Ap     0.273775     5App    0.282973    18Ap     0.295889  
       6App    0.327037    19Ap     0.375766    20Ap     0.403937  
      21Ap     0.460953    22Ap     0.562305     7App    0.632385  
      23Ap     0.638967    24Ap     0.646370    25Ap     0.671848  
      26Ap     0.712899     8App    0.726773     9App    0.735888  
      10App    0.748906    27Ap     0.784969    28Ap     0.810559  
      29Ap     0.856615    11App    0.867648    30Ap     0.918532  
      12App    0.936202    31Ap     0.943946    13App    0.949529  
      32Ap     0.954226    33Ap     0.973701    34Ap     1.015867  
      14App    1.024890    35Ap     1.047582    36Ap     1.154645  
      37Ap     1.176545    15App    1.180786    38Ap     1.219019  
      16App    1.272364    39Ap     1.275056    40Ap     1.334997  
      17App    1.529356    41Ap     1.561794    18App    1.602139  
      42Ap     1.717486    43Ap     1.824466    44Ap     1.834248  
      45Ap     2.003033    19App    2.013687    46Ap     2.013875  
      20App    2.053240    47Ap     2.065938    21App    2.170916  
      48Ap     2.179510    22App    2.179647    49Ap     2.204398  
      50Ap     2.228957    23App    2.248933    24App    2.297030  
      51Ap     2.317651    52Ap     2.343586    53Ap     2.422162  
      25App    2.452064    54Ap     2.462914    26App    2.532788  
      55Ap     2.542631    56Ap     2.637959    57Ap     2.681832  
      27App    2.730195    58Ap     2.758292    59Ap     2.869474  
      60Ap     2.944807    28App    2.947128    61Ap     3.699865  
      62Ap     3.896678    29App    4.036050    30App    4.145730  
      63Ap     4.179661    64Ap     4.243211    31App    4.254969  
      65Ap     4.295795    32App    4.298592    66Ap     4.391637  
      33App    4.393330    34App    4.441486    67Ap     4.467756  
      68Ap     4.579276    69Ap     4.784913    70Ap     4.964351  
      35App    5.154418    71Ap     5.181714    72Ap     5.306142  
      73Ap     5.374183    36App    5.526534    74Ap     5.689769  
      75Ap     6.198136    37App    6.419168    76Ap     6.419192  
      38App    6.448299    77Ap     6.451095    78Ap     6.532882  
      39App    6.575804    79Ap     6.606766    80Ap     6.681562  
      40App    6.729120    81Ap     6.916552    41App    7.004493  
      82Ap     7.005488    42App    7.042023    83Ap     7.071538  
      84Ap     7.129902    43App    7.149311    44App    7.275688  
      85Ap     7.322421    45App    7.327547    86Ap     7.360032  
      46App    7.442407    87Ap     7.658739    88Ap     7.945843  
      89Ap     7.966588    90Ap     8.812633    91Ap     9.472373  
      92Ap    16.515944  

    Final Occupation by Irrep:
             Ap   App 
    DOCC [     7,    1 ]
    SOCC [     1,    1 ]

  @UHF Final Energy:  -150.87436656538947

   => Energetics <=

    Nuclear Repulsion Energy =             22.8585305701671260
    One-Electron Energy =                -253.5002148377722619
    Two-Electron Energy =                  79.7673177022156779
    Total Energy =                       -150.8743665653894652

  UHF NO Occupations:
  HONO-2 :    7 Ap 1.9970290
  HONO-1 :    8 Ap 1.0000000
  HONO-0 :    2App 1.0000000
  LUNO+0 :    9 Ap 0.0029710
  LUNO+1 :   10 Ap 0.0017129
  LUNO+2 :   11 Ap 0.0000024
  LUNO+3 :   12 Ap 0.0000019


Computation Completed


Properties will be evaluated at   0.000000,   0.000000,   0.000000 [a0]

Properties computed using the SCF density matrix

  Nuclear Dipole Moment: [e a0]
     X:    -2.1900      Y:     0.8372      Z:     0.0000

  Electronic Dipole Moment: [e a0]
     X:     2.7522      Y:    -0.2168      Z:     0.0000

  Dipole Moment: [e a0]
     X:     0.5622      Y:     0.6205      Z:     0.0000     Total:     0.8373

  Dipole Moment: [D]
     X:     1.4290      Y:     1.5771      Z:     0.0000     Total:     2.1282


*** tstop() called on c1-11.compute.lan at Tue Mar  9 15:13:36 2021
Module time:
	user time   =      62.55 seconds =       1.04 minutes
	system time =       3.11 seconds =       0.05 minutes
	total time  =          6 seconds =       0.10 minutes
Total time:
	user time   =      62.55 seconds =       1.04 minutes
	system time =       3.11 seconds =       0.05 minutes
	total time  =          6 seconds =       0.10 minutes
 MINTS: Wrapper to libmints.
   by Justin Turney

   Calculation information:
      Number of threads:                12
      Number of atoms:                   4
      Number of AO shells:              46
      Number of SO shells:              46
      Number of primitives:             82
      Number of atomic orbitals:       160
      Number of basis functions:       138

      Number of irreps:                  2
      Integral cutoff                 0.00e+00
      Number of functions per irrep: [  92   46 ]

 OEINTS: Overlap, kinetic, potential, dipole, and quadrupole integrals
         stored in file 35.

      Computing two-electron integrals...done
      Computed 22943919 non-zero two-electron integrals.
        Stored in file 33.


*** tstart() called on c1-11.compute.lan
*** at Tue Mar  9 15:13:39 2021


	Wfn Parameters:
	--------------------
	Wavefunction         = CCSD_T
	Number of irreps     = 2
	Number of MOs        = 138
	Number of active MOs = 136
	AO-Basis             = NONE
	Semicanonical        = false
	Reference            = UHF
	Print Level          = 1

	IRREP	# MOs	# FZDC	# DOCC	# SOCC	# VIRT	# FZVR
	-----	-----	------	------	------	------	------
	 Ap	   92	    2	    5	    1	    84	    0
	 App	   46	    0	    1	    1	    44	    0
	Transforming integrals...
	IWL integrals will be deleted.
	(OO|OO)...
	Presorting SO-basis two-electron integrals.
	Sorting File: SO Ints (nn|nn) nbuckets = 1
	Transforming the one-electron integrals and constructing Fock matrices
	Starting AA/AB first half-transformation.
	Sorting AA/AB half-transformed integrals.
	Starting BB first half-transformation.
	Sorting BB half-transformed integrals.
	First half integral transformation complete.
	Starting AA second half-transformation.
	Starting AB second half-transformation.
	Starting BB second half-transformation.
	Two-electron integral transformation complete.
	(OO|OV)...
	Starting AA second half-transformation.
	Starting AB second half-transformation.
	Starting BB second half-transformation.
	Two-electron integral transformation complete.
	(OO|VV)...
	Starting AA second half-transformation.
	Starting AB second half-transformation.
	Starting BB second half-transformation.
	Two-electron integral transformation complete.
	(OV|OO)...
	Starting AA/AB first half-transformation.
	Sorting AA/AB half-transformed integrals.
	Starting BB first half-transformation.
	Sorting BB half-transformed integrals.
	First half integral transformation complete.
	Starting AA second half-transformation.
	Starting AB second half-transformation.
	Starting BB second half-transformation.
	Two-electron integral transformation complete.
	(OV|OV)...
	Starting AA second half-transformation.
	Starting AB second half-transformation.
	Starting BB second half-transformation.
	Two-electron integral transformation complete.
	(OV|VV)...
	Starting AA second half-transformation.
	Starting AB second half-transformation.
	Starting BB second half-transformation.
	Two-electron integral transformation complete.
	(VV|OO)...
	Starting AA/AB first half-transformation.
	Sorting AA/AB half-transformed integrals.
	Starting BB first half-transformation.
	Sorting BB half-transformed integrals.
	First half integral transformation complete.
	Starting AA second half-transformation.
	Starting AB second half-transformation.
	Starting BB second half-transformation.
	Two-electron integral transformation complete.
	(VV|OV)...
	Starting AA second half-transformation.
	Starting AB second half-transformation.
	Starting BB second half-transformation.
	Two-electron integral transformation complete.
	(VV|VV)...
	Starting AA second half-transformation.
	Starting AB second half-transformation.
	Starting BB second half-transformation.
	Two-electron integral transformation complete.
	Frozen core energy     =   -125.83055766236295

	Size of irrep 0 of <AB|CD> integrals:     19.643 (MW) /    157.141 (MB)
	Size of irrep 1 of <AB|CD> integrals:     13.660 (MW) /    109.283 (MB)
	Total:                                    33.303 (MW) /    266.424 (MB)

	Size of irrep 0 of <ab|cd> integrals:     20.794 (MW) /    166.349 (MB)
	Size of irrep 1 of <ab|cd> integrals:     14.631 (MW) /    117.045 (MB)
	Total:                                    35.424 (MW) /    283.394 (MB)

	Size of irrep 0 of <Ab|Cd> integrals:     83.174 (MW) /    665.395 (MB)
	Size of irrep 1 of <Ab|Cd> integrals:     56.550 (MW) /    452.403 (MB)
	Total:                                   139.725 (MW) /   1117.798 (MB)

	Size of irrep 0 of <IA|BC> integrals:      5.323 (MW) /     42.586 (MB)
	Size of irrep 1 of <IA|BC> integrals:      3.193 (MW) /     25.547 (MB)
	Total:                                     8.517 (MW) /     68.133 (MB)

	Size of irrep 0 of <ia|bc> integrals:      4.348 (MW) /     34.780 (MB)
	Size of irrep 1 of <ia|bc> integrals:      2.372 (MW) /     18.972 (MB)
	Total:                                     6.719 (MW) /     53.752 (MB)

	Size of irrep 0 of <Ia|Bc> integrals:      5.472 (MW) /     43.776 (MB)
	Size of irrep 1 of <Ia|Bc> integrals:      3.309 (MW) /     26.470 (MB)
	Total:                                     8.781 (MW) /     70.246 (MB)

	Size of irrep 0 of <iA|bC> integrals:      4.232 (MW) /     33.853 (MB)
	Size of irrep 1 of <iA|bC> integrals:      2.286 (MW) /     18.289 (MB)
	Total:                                     6.518 (MW) /     52.142 (MB)

	Size of irrep 0 of tIjAb amplitudes:       0.292 (MW) /      2.335 (MB)
	Size of irrep 1 of tIjAb amplitudes:       0.120 (MW) /      0.963 (MB)
	Total:                                     0.412 (MW) /      3.297 (MB)

	Nuclear Rep. energy          =     22.85853057016713
	SCF energy                   =   -150.87436656538947
	One-electron energy          =    -84.34748769208282
	Two-electron (AA) energy     =     10.12574932971107
	Two-electron (BB) energy     =      5.38770633942723
	Two-electron (AB) energy     =     20.93169254975010
	Two-electron energy          =     36.44514821888840
	Reference energy             =   -150.87436656539023

*** tstop() called on c1-11.compute.lan at Tue Mar  9 15:14:22 2021
Module time:
	user time   =     106.54 seconds =       1.78 minutes
	system time =      25.89 seconds =       0.43 minutes
	total time  =         43 seconds =       0.72 minutes
Total time:
	user time   =     175.20 seconds =       2.92 minutes
	system time =      29.80 seconds =       0.50 minutes
	total time  =         52 seconds =       0.87 minutes
            **************************
            *                        *
            *        CCENERGY        *
            *                        *
            **************************

    Nuclear Rep. energy (wfn)     =   22.858530570167126
    SCF energy          (wfn)     = -150.874366565389465
    Reference energy    (file100) = -150.874366565390233

    Input parameters:
    -----------------
    Wave function   =     CCSD_T
    Reference wfn   =     UHF
    Brueckner       =     No
    Memory (Mbytes) =     4000.0
    Maxiter         =     50
    R_Convergence   =     1.0e-10
    E_Convergence   =     1.0e-10
    Restart         =     Yes
    DIIS            =     Yes
    AO Basis        =     NONE
    ABCD            =     NEW
    Cache Level     =     2
    Cache Type      =     LRU
    Print Level     =     1
    Num. of threads =     12
    # Amps to Print =     10
    Print MP2 Amps? =     No
    Analyze T2 Amps =     No
    Print Pair Ener =     No
    Local CC        =     No
    SCS-MP2         =     False
    SCSN-MP2        =     False
    SCS-CCSD        =     False

MP2 correlation energy -0.4166355875231118
                Solving CC Amplitude Equations
                ------------------------------
  Iter             Energy              RMS        T1Diag      D1Diag    New D1Diag    D2Diag
  ----     ---------------------    ---------   ----------  ----------  ----------   --------
     0        -0.416635587523112    0.000e+00    0.000000    0.000000    0.000000    0.000000
     1        -0.427353351940458    5.687e-02    0.010547    0.000000    0.000000    0.000000
     2        -0.435450875652506    1.689e-02    0.011034    0.000000    0.000000    0.000000
     3        -0.437568479208140    8.575e-03    0.012906    0.000000    0.000000    0.000000
     4        -0.437443313714450    2.535e-03    0.013274    0.000000    0.000000    0.000000
     5        -0.437428229342738    1.327e-03    0.013431    0.000000    0.000000    0.000000
     6        -0.437455528981579    5.166e-04    0.013454    0.000000    0.000000    0.000000
     7        -0.437460345620645    2.681e-04    0.013449    0.000000    0.000000    0.000000
     8        -0.437460914552565    9.685e-05    0.013445    0.000000    0.000000    0.000000
     9        -0.437462322815183    6.948e-05    0.013446    0.000000    0.000000    0.000000
    10        -0.437460760916539    5.805e-05    0.013447    0.000000    0.000000    0.000000
    11        -0.437460891567960    5.478e-05    0.013448    0.000000    0.000000    0.000000
    12        -0.437460691374636    5.304e-05    0.013450    0.000000    0.000000    0.000000
    13        -0.437460680467622    5.209e-05    0.013452    0.000000    0.000000    0.000000
    14        -0.437461598684410    5.080e-05    0.013462    0.000000    0.000000    0.000000
    15        -0.437461932647356    4.640e-05    0.013507    0.000000    0.000000    0.000000
    16        -0.437461703412649    3.349e-05    0.013625    0.000000    0.000000    0.000000
    17        -0.437461406009034    1.699e-05    0.013697    0.000000    0.000000    0.000000
    18        -0.437461259202244    7.989e-06    0.013717    0.000000    0.000000    0.000000
    19        -0.437461505800088    3.516e-06    0.013723    0.000000    0.000000    0.000000
    20        -0.437461623858187    1.552e-06    0.013724    0.000000    0.000000    0.000000
    21        -0.437461630769682    6.195e-07    0.013724    0.000000    0.000000    0.000000
    22        -0.437461631883049    2.828e-07    0.013724    0.000000    0.000000    0.000000
    23        -0.437461631171846    1.427e-07    0.013724    0.000000    0.000000    0.000000
    24        -0.437461630374287    5.516e-08    0.013724    0.000000    0.000000    0.000000
    25        -0.437461631278870    2.743e-08    0.013724    0.000000    0.000000    0.000000
    26        -0.437461631715249    1.929e-08    0.013724    0.000000    0.000000    0.000000
    27        -0.437461631847789    1.760e-08    0.013724    0.000000    0.000000    0.000000
    28        -0.437461631825372    1.699e-08    0.013724    0.000000    0.000000    0.000000
    29        -0.437461631730862    1.658e-08    0.013724    0.000000    0.000000    0.000000
    30        -0.437461631542822    1.607e-08    0.013724    0.000000    0.000000    0.000000
    31        -0.437461631567341    1.455e-08    0.013724    0.000000    0.000000    0.000000
    32        -0.437461631816671    9.369e-09    0.013724    0.000000    0.000000    0.000000
    33        -0.437461631912668    4.361e-09    0.013724    0.000000    0.000000    0.000000
    34        -0.437461631973391    1.851e-09    0.013724    0.000000    0.000000    0.000000
    35        -0.437461631981143    7.227e-10    0.013724    0.000000    0.000000    0.000000
    36        -0.437461631980587    2.907e-10    0.013724    0.000000    0.000000    0.000000
    37        -0.437461631978602    1.219e-10    0.013724    0.000000    0.000000    0.000000
    38        -0.437461631979839    5.867e-11    0.013724    0.000000    0.000000    0.000000

    Iterations converged.


    Largest TIA Amplitudes:
              7  87        -0.0125017410
              7  84        -0.0117441756
              7  85        -0.0093191211
              4   3         0.0093137977
              6  84        -0.0081025494
              4  10         0.0080395471
              5   2        -0.0069848513
              5   9        -0.0068770769
              2   2         0.0068741484
              2   4         0.0059504225

    Largest Tia Amplitudes:
              5  86        -0.0122874746
              5  89        -0.0121018617
              5  85        -0.0100250115
              4   1        -0.0082364228
              3   3         0.0078403312
              3  11         0.0074994876
              5  88        -0.0061258842
              3  10        -0.0058492453
              5  87        -0.0057239160
              4   4        -0.0054137945

    Largest TIJAB Amplitudes:
      6   2  92  21         0.0135242342
      6   2 101  38        -0.0097195571
      4   2  29  21        -0.0091794954
      4   2  41  40        -0.0084782867
      6   4  92  29         0.0084473947
      6   4 103  40         0.0083561358
      6   2 111  54        -0.0078164439
      7   5  90  17        -0.0077465627
      6   2 102  38         0.0074670065
      4   2  21  10         0.0073500792

    Largest Tijab Amplitudes:
      5   3  92  18        -0.0075452217
      4   1  91  85        -0.0073865264
      5   2 100  17         0.0067339411
      4   1 106  85        -0.0064608032
      5   3  89  11         0.0062822807
      5   2  93  17         0.0060074764
      5   2  89  13         0.0058670592
      4   1  42   1         0.0055996577
      5   2  86  13         0.0055476136
      5   2  94  13         0.0051861616

    Largest TIjAb Amplitudes:
      3   2  12  13         0.0186272002
      6   1  38  85        -0.0160996249
      4   1 103  85        -0.0152096842
      2   1 101  85         0.0149639335
      2   1  38   1        -0.0146218554
      2   1  88  85        -0.0145092976
      5   3  10  11        -0.0140683195
      6   1  14  85         0.0133192981
      4   1  41   1         0.0130832928
      4   1  89  85         0.0128938003

    SCF energy       (wfn)                    = -150.874366565389465
    Reference energy (file100)                = -150.874366565390233

    Opposite-spin MP2 correlation energy      =   -0.314655935392140
    Same-spin MP2 correlation energy          =   -0.101979652130972
    MP2 correlation energy                    =   -0.416635587523112
      * MP2 total energy                      = -151.291002152913336

    Opposite-spin CCSD correlation energy     =   -0.342204124666027
    Same-spin CCSD correlation energy         =   -0.095257507313811
    CCSD correlation energy                   =   -0.437461631979839
      * CCSD total energy                     = -151.311828197370062

            **************************
            *                        *
            *        CCTRIPLES       *
            *                        *
            **************************


    Wave function   =    CCSD_T
    Reference wfn   =      UHF

    Nuclear Rep. energy (wfn)                =   22.858530570167126
    SCF energy          (wfn)                = -150.874366565389465
    Reference energy    (file100)            = -150.874366565390233
    CCSD energy         (file100)            =   -0.437461631979839
    Total CCSD energy   (file100)            = -151.311828197370062

    Number of ijk index combinations:
    Spin Case AAA:                                  56
    Spin Case BBB:                                  20
    Spin Case AAB:                                 168
    Spin Case ABB:                                 120
    AAA (T) energy                             =   -0.000399748970737
    BBB (T) energy                             =   -0.000202704918136
    AAB (T) energy                             =   -0.006746859222385
    ABB (T) energy                             =   -0.005012304970518
    (T) energy                                   =   -0.012361618081776
      * CCSD(T) total energy                     = -151.324189815451859

Stephenergy -151.32418981545186
    Psi4 stopped on: Tuesday, 09 March 2021 03:17PM
    Psi4 wall time for execution: 0:04:02.66

*** Psi4 exiting successfully. Buy a developer a beer!
