
    -----------------------------------------------------------------------
          Psi4: An Open-Source Ab Initio Electronic Structure Package
                               Psi4 1.4a2.dev191 

                         Git: Rev {master} 0ab5346 


    R. M. Parrish, L. A. Burns, D. G. A. Smith, A. C. Simmonett,
    A. E. DePrince III, E. G. Hohenstein, U. Bozkaya, A. Yu. Sokolov,
    R. Di Remigio, R. M. Richard, J. F. Gonthier, A. M. James,
    H. R. McAlexander, A. Kumar, M. Saitow, X. Wang, B. P. Pritchard,
    P. Verma, H. F. Schaefer III, K. Patkowski, R. A. King, E. F. Valeev,
    F. A. Evangelista, J. M. Turney, T. D. Crawford, and C. D. Sherrill,
    J. Chem. Theory Comput. 13(7) pp 3185--3197 (2017).
    (doi: 10.1021/acs.jctc.7b00174)


                         Additional Contributions by
    P. Kraus, H. Kruse, M. H. Lechner, M. C. Schieber, R. A. Shaw,
    A. Alenaizan, R. Galvelis, Z. L. Glick, S. Lehtola, and J. P. Misiewicz

    -----------------------------------------------------------------------


    Psi4 started on: Tuesday, 23 February 2021 01:33PM

    Process ID: 5799
    Host:       c1-17.compute.lan
    PSIDATADIR: /apps/gb/PSI4/1.4.0/share/psi4
    Memory:     500.0 MiB
    Threads:    1
    
  ==> Input File <==

--------------------------------------------------------------------------
memory 10 GB
molecule {
0 2
O
H 1 R1
R1 = 0.9478992047
}
set {
basis aug-cc-pvdz
e_convergence 10
g_convergence gau_verytight
reference uhf
scf_type pk
mp2_type conv
}

set ccenergy {
e_convergence 10
r_convergence 10
}

optimize("ccsd")

--------------------------------------------------------------------------

  Memory set to   9.313 GiB by Python driver.
gradient() will perform analytic gradient computation.

*** tstart() called on c1-17.compute.lan
*** at Tue Feb 23 13:33:33 2021

   => Loading Basis Set <=

    Name: AUG-CC-PVDZ
    Role: ORBITAL
    Keyword: BASIS
    atoms 1 entry O          line   254 file /apps/gb/PSI4/1.4.0/share/psi4/basis/aug-cc-pvdz.gbs 
    atoms 2 entry H          line    40 file /apps/gb/PSI4/1.4.0/share/psi4/basis/aug-cc-pvdz.gbs 


         ---------------------------------------------------------
                                   SCF
               by Justin Turney, Rob Parrish, Andy Simmonett
                          and Daniel G. A. Smith
                              UHF Reference
                        1 Threads,   9536 MiB Core
         ---------------------------------------------------------

  ==> Geometry <==

    Molecular point group: c2v
    Full point group: C_inf_v

    Geometry (in Angstrom), charge = 0, multiplicity = 2:

       Center              X                  Y                   Z               Mass       
    ------------   -----------------  -----------------  -----------------  -----------------
         O            0.000000000000     0.000000000000    -0.056186036256    15.994914619570
         H            0.000000000000     0.000000000000     0.891713168444     1.007825032230

  Running in c2v symmetry.

  Rotational constants: A = ************  B =     19.78901  C =     19.78901 [cm^-1]
  Rotational constants: A = ************  B = 593259.52428  C = 593259.52428 [MHz]
  Nuclear repulsion =    4.466105324668810

  Charge       = 0
  Multiplicity = 2
  Electrons    = 9
  Nalpha       = 5
  Nbeta        = 4

  ==> Algorithm <==

  SCF Algorithm Type is PK.
  DIIS enabled.
  MOM disabled.
  Fractional occupation disabled.
  Guess Type is SAD.
  Energy threshold   = 1.00e-10
  Density threshold  = 1.00e-10
  Integral threshold = 0.00e+00

  ==> Primary Basis <==

  Basis Set: AUG-CC-PVDZ
    Blend: AUG-CC-PVDZ
    Number of shells: 14
    Number of basis function: 32
    Number of Cartesian functions: 34
    Spherical Harmonics?: true
    Max angular momentum: 2

  ==> Pre-Iterations <==

   -------------------------------------------------------
    Irrep   Nso     Nmo     Nalpha   Nbeta   Ndocc  Nsocc
   -------------------------------------------------------
     A1        16      16       0       0       0       0
     A2         2       2       0       0       0       0
     B1         7       7       0       0       0       0
     B2         7       7       0       0       0       0
   -------------------------------------------------------
    Total      32      32       5       4       4       1
   -------------------------------------------------------

  ==> Integral Setup <==

  Using in-core PK algorithm.
   Calculation information:
      Number of atoms:                   2
      Number of AO shells:              14
      Number of primitives:             32
      Number of atomic orbitals:        34
      Number of basis functions:        32

      Integral cutoff                 1.00e-12
      Number of threads:                 1

  Performing in-core PK
  Using 279312 doubles for integral storage.
  We computed 5565 shell quartets total.
  Whereas there are 5565 unique shell quartets.

  ==> DiskJK: Disk-Based J/K Matrices <==

    J tasked:                  Yes
    K tasked:                  Yes
    wK tasked:                  No
    Memory [MiB]:             7152
    Schwarz Cutoff:          1E-12

    OpenMP threads:              1

  Minimum eigenvalue in the overlap matrix is 3.2729941475E-03.
  Using Symmetric Orthogonalization.

  SCF Guess: Superposition of Atomic Densities via on-the-fly atomic UHF.

  ==> Iterations <==

                        Total Energy        Delta E     RMS |[F,P]|

   @UHF iter SAD:   -74.64871607335925   -7.46487e+01   0.00000e+00 
   @UHF iter   1:   -75.38150619371558   -7.32790e-01   1.11813e-02 DIIS
   @UHF iter   2:   -75.40081837616225   -1.93122e-02   4.16365e-03 DIIS
   @UHF iter   3:   -75.40333881770701   -2.52044e-03   1.20954e-03 DIIS
   @UHF iter   4:   -75.40373646200493   -3.97644e-04   3.97463e-04 DIIS
   @UHF iter   5:   -75.40380444451563   -6.79825e-05   1.70884e-04 DIIS
   @UHF iter   6:   -75.40382178519025   -1.73407e-05   5.57764e-05 DIIS
   @UHF iter   7:   -75.40382402164744   -2.23646e-06   1.58291e-05 DIIS
   @UHF iter   8:   -75.40382419149668   -1.69849e-07   3.72310e-06 DIIS
   @UHF iter   9:   -75.40382419904543   -7.54875e-09   1.01431e-06 DIIS
   @UHF iter  10:   -75.40382419966022   -6.14790e-10   1.52038e-07 DIIS
   @UHF iter  11:   -75.40382419967210   -1.18803e-11   1.82179e-08 DIIS
   @UHF iter  12:   -75.40382419967219   -8.52651e-14   4.85718e-09 DIIS
   @UHF iter  13:   -75.40382419967219    0.00000e+00   1.11005e-09 DIIS
   @UHF iter  14:   -75.40382419967219    0.00000e+00   2.17753e-10 DIIS
   @UHF iter  15:   -75.40382419967224   -5.68434e-14   3.54770e-11 DIIS
  Energy and wave function converged.


  ==> Post-Iterations <==

   @Spin Contamination Metric:   6.284287007E-03
   @S^2 Expected:                7.500000000E-01
   @S^2 Observed:                7.562842870E-01
   @S   Expected:                5.000000000E-01
   @S   Observed:                5.000000000E-01

    Orbital Energies [Eh]
    ---------------------

    Alpha Occupied:                                                       

       1A1   -20.649677     2A1    -1.399661     3A1    -0.690582  
       1B1    -0.658019     1B2    -0.562559  

    Alpha Virtual:                                                        

       4A1     0.036049     5A1     0.177925     2B1     0.184671  
       2B2     0.197475     6A1     0.227519     7A1     0.320862  
       3B1     0.388944     3B2     0.399514     8A1     0.630975  
       9A1     0.849102     1A2     0.955602    10A1     0.957538  
       4B1     1.086194     4B2     1.116823    11A1     1.318808  
       5B1     1.332699     5B2     1.391507    12A1     1.672731  
       6B1     2.026073     6B2     2.044521    13A1     2.538446  
      14A1     2.764824     2A2     3.483263    15A1     3.483362  
       7B1     3.596448     7B2     3.656629    16A1     4.135199  

    Beta Occupied:                                                        

       1A1   -20.608990     2A1    -1.243286     3A1    -0.645812  
       1B2    -0.513110  

    Beta Virtual:                                                         

       4A1     0.037436     1B1     0.063815     5A1     0.180986  
       2B2     0.200865     6A1     0.234426     2B1     0.256352  
       7A1     0.325873     3B2     0.399318     3B1     0.413052  
       8A1     0.645583     9A1     0.860841     1A2     0.994323  
      10A1     0.995472     4B2     1.119131     4B1     1.132527  
      11A1     1.333870     5B2     1.414561     5B1     1.502082  
      12A1     1.695229     6B1     2.035306     6B2     2.041636  
      13A1     2.571909    14A1     2.780361     2A2     3.583454  
      15A1     3.584198     7B2     3.674913     7B1     3.692566  
      16A1     4.168149  

    Final Occupation by Irrep:
             A1    A2    B1    B2 
    DOCC [     3,    0,    0,    1 ]
    SOCC [     0,    0,    1,    0 ]

  @UHF Final Energy:   -75.40382419967224

   => Energetics <=

    Nuclear Repulsion Energy =              4.4661053246688098
    One-Electron Energy =                -112.7681629268980430
    Two-Electron Energy =                  32.8982334025569898
    Total Energy =                        -75.4038241996722434

  UHF NO Occupations:
  HONO-2 :    2 A1 1.9993524
  HONO-1 :    3 A1 1.9980512
  HONO-0 :    1 B1 1.0000000
  LUNO+0 :    4 A1 0.0019488
  LUNO+1 :    5 A1 0.0006476
  LUNO+2 :    2 B2 0.0005476
  LUNO+3 :    6 A1 0.0000004


Computation Completed


Properties will be evaluated at   0.000000,   0.000000,   0.000000 [a0]

Properties computed using the SCF density matrix

  Nuclear Dipole Moment: [e a0]
     X:     0.0000      Y:     0.0000      Z:     0.8357

  Electronic Dipole Moment: [e a0]
     X:     0.0000      Y:     0.0000      Z:    -0.1458

  Dipole Moment: [e a0]
     X:     0.0000      Y:     0.0000      Z:     0.6899     Total:     0.6899

  Dipole Moment: [D]
     X:     0.0000      Y:     0.0000      Z:     1.7535     Total:     1.7535


*** tstop() called on c1-17.compute.lan at Tue Feb 23 13:33:34 2021
Module time:
	user time   =       0.56 seconds =       0.01 minutes
	system time =       0.01 seconds =       0.00 minutes
	total time  =          1 seconds =       0.02 minutes
Total time:
	user time   =       0.56 seconds =       0.01 minutes
	system time =       0.01 seconds =       0.00 minutes
	total time  =          1 seconds =       0.02 minutes
 MINTS: Wrapper to libmints.
   by Justin Turney

   Calculation information:
      Number of threads:                 1
      Number of atoms:                   2
      Number of AO shells:              14
      Number of SO shells:              14
      Number of primitives:             32
      Number of atomic orbitals:        34
      Number of basis functions:        32

      Number of irreps:                  4
      Integral cutoff                 0.00e+00
      Number of functions per irrep: [  16    2    7    7 ]

 OEINTS: Overlap, kinetic, potential, dipole, and quadrupole integrals
         stored in file 35.

      Computing two-electron integrals...done
      Computed 33337 non-zero two-electron integrals.
        Stored in file 33.


*** tstart() called on c1-17.compute.lan
*** at Tue Feb 23 13:33:34 2021


	Wfn Parameters:
	--------------------
	Wavefunction         = CCSD
	Number of irreps     = 4
	Number of MOs        = 32
	Number of active MOs = 32
	AO-Basis             = NONE
	Semicanonical        = false
	Reference            = UHF
	Print Level          = 1

	IRREP	# MOs	# FZDC	# DOCC	# SOCC	# VIRT	# FZVR
	-----	-----	------	------	------	------	------
	 A1	   16	    0	    3	    0	    13	    0
	 A2	   2	    0	    0	    0	    2	    0
	 B1	   7	    0	    0	    1	    6	    0
	 B2	   7	    0	    1	    0	    6	    0
	Transforming integrals...
	IWL integrals will be deleted.
	(OO|OO)...
	Presorting SO-basis two-electron integrals.
	Sorting File: SO Ints (nn|nn) nbuckets = 1
	Transforming the one-electron integrals and constructing Fock matrices
	Starting AA/AB first half-transformation.
	Sorting AA/AB half-transformed integrals.
	Starting BB first half-transformation.
	Sorting BB half-transformed integrals.
	First half integral transformation complete.
	Starting AA second half-transformation.
	Starting AB second half-transformation.
	Starting BB second half-transformation.
	Two-electron integral transformation complete.
	(OO|OV)...
	Starting AA second half-transformation.
	Starting AB second half-transformation.
	Starting BB second half-transformation.
	Two-electron integral transformation complete.
	(OO|VV)...
	Starting AA second half-transformation.
	Starting AB second half-transformation.
	Starting BB second half-transformation.
	Two-electron integral transformation complete.
	(OV|OO)...
	Starting AA/AB first half-transformation.
	Sorting AA/AB half-transformed integrals.
	Starting BB first half-transformation.
	Sorting BB half-transformed integrals.
	First half integral transformation complete.
	Starting AA second half-transformation.
	Starting AB second half-transformation.
	Starting BB second half-transformation.
	Two-electron integral transformation complete.
	(OV|OV)...
	Starting AA second half-transformation.
	Starting AB second half-transformation.
	Starting BB second half-transformation.
	Two-electron integral transformation complete.
	(OV|VV)...
	Starting AA second half-transformation.
	Starting AB second half-transformation.
	Starting BB second half-transformation.
	Two-electron integral transformation complete.
	(VV|OO)...
	Starting AA/AB first half-transformation.
	Sorting AA/AB half-transformed integrals.
	Starting BB first half-transformation.
	Sorting BB half-transformed integrals.
	First half integral transformation complete.
	Starting AA second half-transformation.
	Starting AB second half-transformation.
	Starting BB second half-transformation.
	Two-electron integral transformation complete.
	(VV|OV)...
	Starting AA second half-transformation.
	Starting AB second half-transformation.
	Starting BB second half-transformation.
	Two-electron integral transformation complete.
	(VV|VV)...
	Starting AA second half-transformation.
	Starting AB second half-transformation.
	Starting BB second half-transformation.
	Two-electron integral transformation complete.
	Frozen core energy     =      0.00000000000000

	Size of irrep 0 of <AB|CD> integrals:      0.012 (MW) /      0.095 (MB)
	Size of irrep 1 of <AB|CD> integrals:      0.004 (MW) /      0.031 (MB)
	Size of irrep 2 of <AB|CD> integrals:      0.008 (MW) /      0.065 (MB)
	Size of irrep 3 of <AB|CD> integrals:      0.008 (MW) /      0.065 (MB)
	Total:                                     0.032 (MW) /      0.255 (MB)

	Size of irrep 0 of <ab|cd> integrals:      0.013 (MW) /      0.106 (MB)
	Size of irrep 1 of <ab|cd> integrals:      0.005 (MW) /      0.037 (MB)
	Size of irrep 2 of <ab|cd> integrals:      0.011 (MW) /      0.085 (MB)
	Size of irrep 3 of <ab|cd> integrals:      0.008 (MW) /      0.068 (MB)
	Total:                                     0.037 (MW) /      0.295 (MB)

	Size of irrep 0 of <Ab|Cd> integrals:      0.063 (MW) /      0.504 (MB)
	Size of irrep 1 of <Ab|Cd> integrals:      0.017 (MW) /      0.135 (MB)
	Size of irrep 2 of <Ab|Cd> integrals:      0.037 (MW) /      0.298 (MB)
	Size of irrep 3 of <Ab|Cd> integrals:      0.033 (MW) /      0.265 (MB)
	Total:                                     0.150 (MW) /      1.202 (MB)

	Size of irrep 0 of <IA|BC> integrals:      0.012 (MW) /      0.100 (MB)
	Size of irrep 1 of <IA|BC> integrals:      0.002 (MW) /      0.018 (MB)
	Size of irrep 2 of <IA|BC> integrals:      0.006 (MW) /      0.048 (MB)
	Size of irrep 3 of <IA|BC> integrals:      0.006 (MW) /      0.048 (MB)
	Total:                                     0.027 (MW) /      0.213 (MB)

	Size of irrep 0 of <ia|bc> integrals:      0.012 (MW) /      0.093 (MB)
	Size of irrep 1 of <ia|bc> integrals:      0.002 (MW) /      0.014 (MB)
	Size of irrep 2 of <ia|bc> integrals:      0.005 (MW) /      0.038 (MB)
	Size of irrep 3 of <ia|bc> integrals:      0.006 (MW) /      0.046 (MB)
	Total:                                     0.024 (MW) /      0.191 (MB)

	Size of irrep 0 of <Ia|Bc> integrals:      0.013 (MW) /      0.104 (MB)
	Size of irrep 1 of <Ia|Bc> integrals:      0.002 (MW) /      0.020 (MB)
	Size of irrep 2 of <Ia|Bc> integrals:      0.007 (MW) /      0.056 (MB)
	Size of irrep 3 of <Ia|Bc> integrals:      0.006 (MW) /      0.048 (MB)
	Total:                                     0.028 (MW) /      0.228 (MB)

	Size of irrep 0 of <iA|bC> integrals:      0.011 (MW) /      0.090 (MB)
	Size of irrep 1 of <iA|bC> integrals:      0.002 (MW) /      0.012 (MB)
	Size of irrep 2 of <iA|bC> integrals:      0.004 (MW) /      0.031 (MB)
	Size of irrep 3 of <iA|bC> integrals:      0.006 (MW) /      0.045 (MB)
	Total:                                     0.022 (MW) /      0.179 (MB)

	Size of irrep 0 of tIjAb amplitudes:       0.003 (MW) /      0.020 (MB)
	Size of irrep 1 of tIjAb amplitudes:       0.000 (MW) /      0.001 (MB)
	Size of irrep 2 of tIjAb amplitudes:       0.001 (MW) /      0.005 (MB)
	Size of irrep 3 of tIjAb amplitudes:       0.001 (MW) /      0.009 (MB)
	Total:                                     0.004 (MW) /      0.034 (MB)

	Nuclear Rep. energy          =      4.46610532466881
	SCF energy                   =    -75.40382419967224
	One-electron energy          =   -112.76816292763938
	Two-electron (AA) energy     =      7.74649949985832
	Two-electron (BB) energy     =      4.64147932711676
	Two-electron (AB) energy     =     20.51025457632324
	Two-electron energy          =     32.89823340329832
	Reference energy             =    -75.40382419967227

*** tstop() called on c1-17.compute.lan at Tue Feb 23 13:33:34 2021
Module time:
	user time   =       0.06 seconds =       0.00 minutes
	system time =       0.10 seconds =       0.00 minutes
	total time  =          0 seconds =       0.00 minutes
Total time:
	user time   =       0.66 seconds =       0.01 minutes
	system time =       0.12 seconds =       0.00 minutes
	total time  =          1 seconds =       0.02 minutes
            **************************
            *                        *
            *        CCENERGY        *
            *                        *
            **************************

    Nuclear Rep. energy (wfn)     =    4.466105324668810
    SCF energy          (wfn)     =  -75.403824199672243
    Reference energy    (file100) =  -75.403824199672272

    Input parameters:
    -----------------
    Wave function   =     CCSD
    Reference wfn   =     UHF
    Brueckner       =     No
    Memory (Mbytes) =     10000.0
    Maxiter         =     50
    R_Convergence   =     1.0e-10
    E_Convergence   =     1.0e-10
    Restart         =     Yes
    DIIS            =     Yes
    AO Basis        =     NONE
    ABCD            =     NEW
    Cache Level     =     2
    Cache Type      =     LRU
    Print Level     =     1
    Num. of threads =     1
    # Amps to Print =     10
    Print MP2 Amps? =     No
    Analyze T2 Amps =     No
    Print Pair Ener =     No
    Local CC        =     No
    SCS-MP2         =     False
    SCSN-MP2        =     False
    SCS-CCSD        =     False

MP2 correlation energy -0.1632040948823922
                Solving CC Amplitude Equations
                ------------------------------
  Iter             Energy              RMS        T1Diag      D1Diag    New D1Diag    D2Diag
  ----     ---------------------    ---------   ----------  ----------  ----------   --------
     0        -0.163204094882392    0.000e+00    0.000000    0.000000    0.000000    0.000000
     1        -0.173204826818733    4.218e-02    0.011028    0.000000    0.000000    0.000000
     2        -0.176929360538467    1.291e-02    0.012531    0.000000    0.000000    0.000000
     3        -0.177987330656178    6.578e-03    0.014559    0.000000    0.000000    0.000000
     4        -0.177966978554211    2.206e-03    0.014929    0.000000    0.000000    0.000000
     5        -0.177972299425108    8.898e-04    0.014928    0.000000    0.000000    0.000000
     6        -0.177994388614297    3.320e-04    0.014911    0.000000    0.000000    0.000000
     7        -0.177996437388728    9.236e-05    0.014898    0.000000    0.000000    0.000000
     8        -0.177996305616342    2.914e-05    0.014897    0.000000    0.000000    0.000000
     9        -0.177996183948542    1.175e-05    0.014897    0.000000    0.000000    0.000000
    10        -0.177996163638023    4.693e-06    0.014897    0.000000    0.000000    0.000000
    11        -0.177996182165981    1.546e-06    0.014898    0.000000    0.000000    0.000000
    12        -0.177996208512882    5.344e-07    0.014898    0.000000    0.000000    0.000000
    13        -0.177996214124036    2.098e-07    0.014898    0.000000    0.000000    0.000000
    14        -0.177996216430604    8.761e-08    0.014898    0.000000    0.000000    0.000000
    15        -0.177996216676419    3.749e-08    0.014898    0.000000    0.000000    0.000000
    16        -0.177996216986987    1.775e-08    0.014898    0.000000    0.000000    0.000000
    17        -0.177996217116008    7.261e-09    0.014898    0.000000    0.000000    0.000000
    18        -0.177996217208592    3.092e-09    0.014898    0.000000    0.000000    0.000000
    19        -0.177996217260557    1.352e-09    0.014898    0.000000    0.000000    0.000000
    20        -0.177996217281609    5.809e-10    0.014898    0.000000    0.000000    0.000000
    21        -0.177996217285640    2.190e-10    0.014898    0.000000    0.000000    0.000000
    22        -0.177996217284787    8.484e-11    0.014898    0.000000    0.000000    0.000000

    Iterations converged.


    Largest TIA Amplitudes:
              4  21        -0.0198550572
              3  15        -0.0177673194
              4  22        -0.0114970586
              3  16        -0.0105986551
              2   3         0.0092662529
              2   1         0.0081830238
              1   2        -0.0064178804
              2   9        -0.0045949018
              3  18        -0.0038949902
              4  24        -0.0032822380

    Largest Tia Amplitudes:
              3  22        -0.0180374782
              3  23        -0.0112569446
              2   3         0.0078569540
              2   1         0.0057223419
              1   6        -0.0055326359
              1   3        -0.0052118811
              1   9        -0.0048478853
              2   9        -0.0046384837
              1   5        -0.0040161080
              1  11        -0.0035533734

    Largest TIJAB Amplitudes:
      4   3  24  18        -0.0205989105
      4   3  13   6        -0.0156528890
      3   2  18   7         0.0139159050
      4   2  24   7         0.0134461581
      3   2  17   5        -0.0118603337
      4   3  21  18        -0.0116738792
      4   3  14  11        -0.0116459347
      4   2  23   5        -0.0110139301
      3   2  18   3         0.0109846131
      4   3  24  15        -0.0107839077

    Largest Tijab Amplitudes:
      3   2  25   7         0.0128941752
      3   2  24   5        -0.0127190950
      3   2  25   3         0.0105110871
      3   1  15  13         0.0103384785
      3   2  23   3         0.0095504452
      3   2  23   5         0.0094021715
      3   2  25   1         0.0087733540
      3   2  22   7         0.0087377323
      3   2  22   1         0.0086761994
      2   1  18  15        -0.0082761915

    Largest TIjAb Amplitudes:
      4   3  24  25        -0.0382834813
      2   2   5   5        -0.0291685204
      3   3  18  25        -0.0270605423
      2   2   7   7        -0.0231495042
      4   3  24  22        -0.0211097275
      4   3  21  25        -0.0205312714
      2   2   3   3        -0.0205175423
      2   2   3   5        -0.0187977834
      4   3  21  22        -0.0187726120
      2   2   5   3        -0.0184447706

    SCF energy       (wfn)                    =  -75.403824199672243
    Reference energy (file100)                =  -75.403824199672272

    Opposite-spin MP2 correlation energy      =   -0.123078585933718
    Same-spin MP2 correlation energy          =   -0.040125508948674
    MP2 correlation energy                    =   -0.163204094882392
      * MP2 total energy                      =  -75.567028294554660

    Opposite-spin CCSD correlation energy     =   -0.139898116627839
    Same-spin CCSD correlation energy         =   -0.038098100656948
    CCSD correlation energy                   =   -0.177996217284787
      * CCSD total energy                     =  -75.581820416957058


			**************************
			*                        *
			*         CCHBAR         *
			*                        *
			**************************


			**************************
			*        CCLAMBDA        *
			**************************


	Nuclear Rep. energy (wfn)     =    4.466105324668810
	Reference           (wfn)     =                    2
	SCF energy          (wfn)     =  -75.403824199672243
	Reference energy    (CC_INFO) =  -75.403824199672272
	CCSD energy         (CC_INFO) =   -0.177996217284787
	Total CCSD energy   (CC_INFO) =  -75.581820416957058

	Input parameters:
	-----------------
	Maxiter           =     50
	Convergence       = 1.0e-07
	Restart           =     No
	Cache Level       =     2
	Model III         =     No
	DIIS              =     Yes
	AO Basis          =     No
	ABCD              =     NEW
	Local CC          =     No
	Parameters for left-handed eigenvectors:
	    Irr   Root  Ground-State?    EOM energy        R0
	  1   0     0        Yes       0.0000000000   1.0000000000
	Labels for eigenvector 1:
	LIA 0 -1, Lia 0 -1, LIJAB 0 -1, Lijab 0 -1, LIjAb 0 -1, 2LIjAb - LIjbA 0 -1
	Symmetry of left-hand state: B1
	Symmetry of left-hand eigenvector: A1

	          Solving Lambda Equations
	          ------------------------
	Iter     PseudoEnergy or Norm         RMS  
	----     ---------------------     --------
	   0        -0.178078794740883    0.000e+00
	   1        -0.175187039980974    1.408e-02
	   2        -0.174530525017108    2.693e-03
	   3        -0.174398201452104    1.354e-03
	   4        -0.174382896532922    3.340e-04
	   5        -0.174387207218033    9.597e-05
	   6        -0.174386094328415    4.280e-05
	   7        -0.174384985850396    1.696e-05
	   8        -0.174384811770183    6.129e-06
	   9        -0.174384793946888    1.658e-06
	  10        -0.174384796226019    5.087e-07
	  11        -0.174384792326266    1.846e-07
	  12        -0.174384791595365    6.990e-08

	Largest LIA Amplitudes:
	          4  21        -0.0136758673
	          3  15        -0.0122324949
	          4  22        -0.0075774570
	          3  16        -0.0071768301
	          2   3         0.0055533029
	          1   2        -0.0043892815
	          2   1         0.0043552049
	          2   9        -0.0040463825
	          2   8         0.0034532553
	          1   9         0.0023213747

	Largest Lia Amplitudes:
	          3  22        -0.0111227028
	          3  23        -0.0068814943
	          1   6        -0.0054020382
	          1   9        -0.0051698412
	          1   3        -0.0042985099
	          2   9        -0.0041703143
	          1   5        -0.0041109111
	          2   7        -0.0041013130
	          2   8         0.0037474780
	          2   3         0.0036654371

	Largest LIJAB Amplitudes:
	  4   3  24  18        -0.0204309254
	  4   3  13   6        -0.0151755129
	  3   2  18   7         0.0137831719
	  4   2  24   7         0.0132796312
	  4   3  21  18        -0.0114841488
	  3   2  17   5        -0.0114727092
	  4   3  14  11        -0.0114131090
	  3   2  18   3         0.0107989543
	  4   2  23   5        -0.0106305542
	  4   3  24  15        -0.0106249258

	Largest Lijab Amplitudes:
	  3   2  25   7         0.0126789635
	  3   2  24   5        -0.0122642648
	  3   2  25   3         0.0102428063
	  3   1  15  13         0.0100466056
	  3   2  23   3         0.0091018526
	  3   2  23   5         0.0090273338
	  3   2  25   1         0.0085019852
	  3   2  22   7         0.0084752642
	  3   2  22   1         0.0082032523
	  2   1  18  15        -0.0080492747

	Largest LIjAb Amplitudes:
	  4   3  24  25        -0.0377953861
	  2   2   5   5        -0.0282508547
	  3   3  18  25        -0.0267484777
	  2   2   7   7        -0.0227913820
	  4   3  24  22        -0.0206000251
	  4   3  21  25        -0.0200819840
	  2   2   3   3        -0.0197514173
	  2   2   3   5        -0.0182013383
	  2   3   7  25         0.0180474308
	  3   2  18   7         0.0180445367

	Iterations converged.

	Overlap <L|e^T> =        0.94836731538

			**************************
			*                        *
			*        CCDENSITY       *
			*                        *
			**************************


	Input parameters:
	-----------------
	Wave function    =   CCSD
	Reference wfn    =   UHF
	Dertype          = 1
	Tolerance        = 1.0e-14
	Cache Level      = 2
	AO Basis         = No
	OPDM Only        = No
	Relax OPDM       = Yes
	Compute Xi       = No
	Use Zeta         = No
	Xi connected     = Yes
	Compute NO       = No

	Nuclear Rep. energy (wfn)     =    4.466105324668810
	SCF energy          (wfn)     =  -75.403824199672243
	Reference energy    (file100) =  -75.403824199672272
	CCSD energy         (CC_INFO) =   -0.177996217284787
	Total CCSD energy   (CC_INFO) =  -75.581820416957058
	Number of States = 1

	Ground?  State     EOM Energy       R0
	  Yes     0 A1    0.0000000000   1.00000000
  Cartesian Displacement SALCs
  By SALC:
  Number of SALCs: 2, nirreps: A1
  Project out translations: False
  Project out rotations: False
	irrep = 0, ncomponent = 1
		0: atom 0, direction z, coef 1.000000
	irrep = 0, ncomponent = 1
		0: atom 1, direction z, coef 1.000000

  By Atomic Center:
  Number of atomic centers: 2
   Atomic Center 0:
	x component, size = 0
	y component, size = 0
	z component, size = 1
		0: salc 0, irrep 0, coef 1.000000
   Atomic Center 1:
	x component, size = 0
	y component, size = 0
	z component, size = 1
		0: salc 1, irrep 0, coef 1.000000

    Molecular point group: c2v
    Full point group: C_inf_v

    Geometry (in Bohr), charge = 0, multiplicity = 2:

       Center              X                  Y                   Z       
    ------------   -----------------  -----------------  -----------------
         O            0.000000000000     0.000000000000    -0.106176220599
         H            0.000000000000     0.000000000000     1.685093670823

	Presorting MO-basis TPDMs.
	Sorting File: MO TPDM (AA|AA) nbuckets = 1
	Sorting File: MO TPDM (AA|aa) nbuckets = 1
	Sorting File: MO TPDM (aa|aa) nbuckets = 1
	Starting first half-transformation.
	Sorting half-transformed TPDMs.
	First half integral transformation complete.


  -Nuclear Repulsion Energy 1st Derivatives:
     Atom            X                  Y                   Z
    ------   -----------------  -----------------  -----------------
       1        0.000000000000     0.000000000000     2.493262096379
       2        0.000000000000     0.000000000000    -2.493262096379


  -Core Hamiltonian Gradient:
     Atom            X                  Y                   Z
    ------   -----------------  -----------------  -----------------
       1        0.000000000000     0.000000000000    -5.990752180669
       2        0.000000000000     0.000000000000     5.990752180669


  -Lagrangian contribution to gradient:
     Atom            X                  Y                   Z
    ------   -----------------  -----------------  -----------------
       1        0.000000000000     0.000000000000     0.425718814705
       2        0.000000000000     0.000000000000    -0.425718814705


  -Two-electron contribution to gradient:
     Atom            X                  Y                   Z
    ------   -----------------  -----------------  -----------------
       1        0.000000000000     0.000000000000     3.102205584872
       2        0.000000000000     0.000000000000    -3.102205584872


  -Total gradient:
     Atom            X                  Y                   Z
    ------   -----------------  -----------------  -----------------
       1        0.000000000000     0.000000000000     0.030434315287
       2        0.000000000000     0.000000000000    -0.030434315287


			-----------------------------------------
			 OPTKING 2.0: for geometry optimizations 
			  - R.A. King,  Bethel University        
			-----------------------------------------

	Internal coordinates to be generated automatically.
	Detected frag 1 with atoms:  1 2
	---Fragment 1 Bond Connectivity---
	 1 : 2
	 2 : 1

	---Fragment 1 Geometry and Gradient---
	 O           0.0000000000        0.0000000000       -0.1061762206
	 H           0.0000000000        0.0000000000        1.6850936708
	             0.0000000000        0.0000000000        0.0304343153
	             0.0000000000        0.0000000000       -0.0304343153

	Previous optimization step data not found.  Starting new optimization.

	---Fragment 1 Intrafragment Coordinates---
	 - Coordinate -           - BOHR/RAD -       - ANG/DEG -
	 R(1,2)           =         1.791270	       0.947899

	Current energy   :       -75.5818204170

	Generating empirical Hessian (Schlegel '84) for each fragment.
	Taking RFO optimization step.
	Going to follow RFO solution 1.
	Using RFO vector 1.
	Norm of target step-size    0.05219
	Projected energy change by RFO approximation:        -0.0002259333

	Back-transformation to cartesian coordinates...
	Successfully converged to displaced geometry.

	--- Internal Coordinate Step in ANG or DEG, aJ/ANG or AJ/DEG ---
	 ---------------------------------------------------------------------------
	   Coordinate                Previous        Force       Change         New 
	   ----------                --------       ------       ------       ------
	    1 R(1,2)          =      0.947899     0.250740     0.027616     0.975515
	 ---------------------------------------------------------------------------
	Successfully symmetrized geometry.

  ==> Convergence Check <==

  Measures of convergence in internal coordinates in au.
  Criteria marked as inactive (o), active & met (*), and active & unmet ( ).
  --------------------------------------------------------------------------------------------- ~
   Step     Total Energy     Delta E     MAX Force     RMS Force      MAX Disp      RMS Disp    ~
  --------------------------------------------------------------------------------------------- ~
    Convergence Criteria             o    2.00e-06 *    1.00e-06 *    6.00e-06 *    4.00e-06 *  ~
  --------------------------------------------------------------------------------------------- ~
      1     -75.58182042   -7.56e+01 o    3.04e-02      3.04e-02      5.22e-02      5.22e-02    ~
  ---------------------------------------------------------------------------------------------

	Writing optimization data to binary file.
	Structure for next step:
	Cartesian Geometry (in Angstrom)
	    O     0.0000000000   0.0000000000  -0.0699939452
	    H     0.0000000000   0.0000000000   0.9055210741
			--------------------------
			 OPTKING Finished Execution 
			--------------------------

    Structure for next step:
    Molecular point group: c2v
    Full point group: C_inf_v

    Geometry (in Angstrom), charge = 0, multiplicity = 2:

    O       
    H             1          R1

    R1        =    0.9755150232

gradient() will perform analytic gradient computation.

*** tstart() called on c1-17.compute.lan
*** at Tue Feb 23 13:33:37 2021

   => Loading Basis Set <=

    Name: AUG-CC-PVDZ
    Role: ORBITAL
    Keyword: BASIS
    atoms 1 entry O          line   254 file /apps/gb/PSI4/1.4.0/share/psi4/basis/aug-cc-pvdz.gbs 
    atoms 2 entry H          line    40 file /apps/gb/PSI4/1.4.0/share/psi4/basis/aug-cc-pvdz.gbs 


         ---------------------------------------------------------
                                   SCF
               by Justin Turney, Rob Parrish, Andy Simmonett
                          and Daniel G. A. Smith
                              UHF Reference
                        1 Threads,   9536 MiB Core
         ---------------------------------------------------------

  ==> Geometry <==

    Molecular point group: c2v
    Full point group: C_inf_v

    Geometry (in Angstrom), charge = 0, multiplicity = 2:

       Center              X                  Y                   Z               Mass       
    ------------   -----------------  -----------------  -----------------  -----------------
         O            0.000000000000     0.000000000000    -0.057822943819    15.994914619570
         H            0.000000000000     0.000000000000     0.917692079342     1.007825032230

  Running in c2v symmetry.

  Rotational constants: A = ************  B =     18.68445  C =     18.68445 [cm^-1]
  Rotational constants: A = ************  B = 560145.83734  C = 560145.83734 [MHz]
  Nuclear repulsion =    4.339674515354210

  Charge       = 0
  Multiplicity = 2
  Electrons    = 9
  Nalpha       = 5
  Nbeta        = 4

  ==> Algorithm <==

  SCF Algorithm Type is PK.
  DIIS enabled.
  MOM disabled.
  Fractional occupation disabled.
  Guess Type is READ.
  Energy threshold   = 1.00e-10
  Density threshold  = 1.00e-10
  Integral threshold = 0.00e+00

  ==> Primary Basis <==

  Basis Set: AUG-CC-PVDZ
    Blend: AUG-CC-PVDZ
    Number of shells: 14
    Number of basis function: 32
    Number of Cartesian functions: 34
    Spherical Harmonics?: true
    Max angular momentum: 2

   => Loading Basis Set <=

    Name: AUG-CC-PVDZ
    Role: ORBITAL
    Keyword: BASIS
    atoms 1 entry O          line   254 file /apps/gb/PSI4/1.4.0/share/psi4/basis/aug-cc-pvdz.gbs 
    atoms 2 entry H          line    40 file /apps/gb/PSI4/1.4.0/share/psi4/basis/aug-cc-pvdz.gbs 

  Reading orbitals from file 180, no projection.

  ==> Pre-Iterations <==

   -------------------------------------------------------
    Irrep   Nso     Nmo     Nalpha   Nbeta   Ndocc  Nsocc
   -------------------------------------------------------
     A1        16      16       0       0       0       0
     A2         2       2       0       0       0       0
     B1         7       7       0       0       0       0
     B2         7       7       0       0       0       0
   -------------------------------------------------------
    Total      32      32       5       4       4       1
   -------------------------------------------------------

  ==> Integral Setup <==

  Using in-core PK algorithm.
   Calculation information:
      Number of atoms:                   2
      Number of AO shells:              14
      Number of primitives:             32
      Number of atomic orbitals:        34
      Number of basis functions:        32

      Integral cutoff                 1.00e-12
      Number of threads:                 1

  Performing in-core PK
  Using 279312 doubles for integral storage.
  We computed 5565 shell quartets total.
  Whereas there are 5565 unique shell quartets.

  ==> DiskJK: Disk-Based J/K Matrices <==

    J tasked:                  Yes
    K tasked:                  Yes
    wK tasked:                  No
    Memory [MiB]:             7152
    Schwarz Cutoff:          1E-12

    OpenMP threads:              1

  Minimum eigenvalue in the overlap matrix is 3.4538004430E-03.
  Using Symmetric Orthogonalization.

  SCF Guess: Orbitals guess was supplied from a previous computation.

  ==> Iterations <==

                        Total Energy        Delta E     RMS |[F,P]|

   @UHF iter   0:   -75.38101096537451   -7.53810e+01   4.16617e-03 
   @UHF iter   1:   -75.40340837816902   -2.23974e-02   5.08300e-04 DIIS
   @UHF iter   2:   -75.40345071065812   -4.23325e-05   1.60788e-04 DIIS
   @UHF iter   3:   -75.40345437073131   -3.66007e-06   4.19452e-05 DIIS
   @UHF iter   4:   -75.40345491280786   -5.42077e-07   1.65502e-05 DIIS
   @UHF iter   5:   -75.40345503586502   -1.23057e-07   7.27641e-06 DIIS
   @UHF iter   6:   -75.40345507443448   -3.85695e-08   2.93031e-06 DIIS
   @UHF iter   7:   -75.40345508119159   -6.75712e-09   6.63506e-07 DIIS
   @UHF iter   8:   -75.40345508146464   -2.73047e-10   7.88300e-08 DIIS
   @UHF iter   9:   -75.40345508146765   -3.01270e-12   1.60529e-08 DIIS
   @UHF iter  10:   -75.40345508146785   -1.98952e-13   4.95969e-09 DIIS
   @UHF iter  11:   -75.40345508146787   -1.42109e-14   1.03764e-09 DIIS
   @UHF iter  12:   -75.40345508146780    7.10543e-14   2.31369e-10 DIIS
   @UHF iter  13:   -75.40345508146788   -8.52651e-14   5.26733e-11 DIIS
  Energy and wave function converged.


  ==> Post-Iterations <==

   @Spin Contamination Metric:   6.635934170E-03
   @S^2 Expected:                7.500000000E-01
   @S^2 Observed:                7.566359342E-01
   @S   Expected:                5.000000000E-01
   @S   Observed:                5.000000000E-01

    Orbital Energies [Eh]
    ---------------------

    Alpha Occupied:                                                       

       1A1   -20.651837     2A1    -1.391408     3A1    -0.682647  
       1B1    -0.656906     1B2    -0.561366  

    Alpha Virtual:                                                        

       4A1     0.035622     5A1     0.178337     2B1     0.185266  
       2B2     0.198186     6A1     0.225217     7A1     0.315655  
       3B1     0.385797     3B2     0.396089     8A1     0.624716  
       9A1     0.839146     1A2     0.956633    10A1     0.958337  
       4B1     1.086629     4B2     1.117031    11A1     1.316399  
       5B1     1.327474     5B2     1.386349    12A1     1.660020  
       6B1     2.010003     6B2     2.027677    13A1     2.482556  
      14A1     2.759458    15A1     3.484236     2A2     3.484364  
       7B1     3.591256     7B2     3.651519    16A1     4.088063  

    Beta Occupied:                                                        

       1A1   -20.610908     2A1    -1.233203     3A1    -0.638400  
       1B2    -0.511661  

    Beta Virtual:                                                         

       4A1     0.037100     1B1     0.064627     5A1     0.181806  
       2B2     0.201649     6A1     0.232058     2B1     0.258052  
       7A1     0.320790     3B2     0.395618     3B1     0.408773  
       8A1     0.639545     9A1     0.849161     1A2     0.995316  
      10A1     0.996391     4B2     1.119282     4B1     1.132147  
      11A1     1.331491     5B2     1.409596     5B1     1.498139  
      12A1     1.683123     6B1     2.017662     6B2     2.024264  
      13A1     2.514599    14A1     2.775354     2A2     3.584668  
      15A1     3.585372     7B2     3.670288     7B1     3.688102  
      16A1     4.122327  

    Final Occupation by Irrep:
             A1    A2    B1    B2 
    DOCC [     3,    0,    0,    1 ]
    SOCC [     0,    0,    1,    0 ]

  @UHF Final Energy:   -75.40345508146788

   => Energetics <=

    Nuclear Repulsion Energy =              4.3396745153542096
    One-Electron Energy =                -112.5479234647528557
    Two-Electron Energy =                  32.8047938679307691
    Total Energy =                        -75.4034550814678823

  UHF NO Occupations:
  HONO-2 :    2 A1 1.9992330
  HONO-1 :    3 A1 1.9980071
  HONO-0 :    1 B1 1.0000000
  LUNO+0 :    4 A1 0.0019929
  LUNO+1 :    5 A1 0.0007670
  LUNO+2 :    2 B2 0.0005601
  LUNO+3 :    6 A1 0.0000004


Computation Completed


Properties will be evaluated at   0.000000,   0.000000,   0.000000 [a0]

Properties computed using the SCF density matrix

  Nuclear Dipole Moment: [e a0]
     X:     0.0000      Y:     0.0000      Z:     0.8600

  Electronic Dipole Moment: [e a0]
     X:     0.0000      Y:     0.0000      Z:    -0.1616

  Dipole Moment: [e a0]
     X:     0.0000      Y:     0.0000      Z:     0.6984     Total:     0.6984

  Dipole Moment: [D]
     X:     0.0000      Y:     0.0000      Z:     1.7751     Total:     1.7751


*** tstop() called on c1-17.compute.lan at Tue Feb 23 13:33:38 2021
Module time:
	user time   =       0.29 seconds =       0.00 minutes
	system time =       0.01 seconds =       0.00 minutes
	total time  =          1 seconds =       0.02 minutes
Total time:
	user time   =       1.70 seconds =       0.03 minutes
	system time =       1.23 seconds =       0.02 minutes
	total time  =          5 seconds =       0.08 minutes
 MINTS: Wrapper to libmints.
   by Justin Turney

   Calculation information:
      Number of threads:                 1
      Number of atoms:                   2
      Number of AO shells:              14
      Number of SO shells:              14
      Number of primitives:             32
      Number of atomic orbitals:        34
      Number of basis functions:        32

      Number of irreps:                  4
      Integral cutoff                 0.00e+00
      Number of functions per irrep: [  16    2    7    7 ]

 OEINTS: Overlap, kinetic, potential, dipole, and quadrupole integrals
         stored in file 35.

      Computing two-electron integrals...done
      Computed 33337 non-zero two-electron integrals.
        Stored in file 33.


*** tstart() called on c1-17.compute.lan
*** at Tue Feb 23 13:33:38 2021


	Wfn Parameters:
	--------------------
	Wavefunction         = CCSD
	Number of irreps     = 4
	Number of MOs        = 32
	Number of active MOs = 32
	AO-Basis             = NONE
	Semicanonical        = false
	Reference            = UHF
	Print Level          = 1

	IRREP	# MOs	# FZDC	# DOCC	# SOCC	# VIRT	# FZVR
	-----	-----	------	------	------	------	------
	 A1	   16	    0	    3	    0	    13	    0
	 A2	   2	    0	    0	    0	    2	    0
	 B1	   7	    0	    0	    1	    6	    0
	 B2	   7	    0	    1	    0	    6	    0
	Transforming integrals...
	IWL integrals will be deleted.
	(OO|OO)...
	Presorting SO-basis two-electron integrals.
	Sorting File: SO Ints (nn|nn) nbuckets = 1
	Transforming the one-electron integrals and constructing Fock matrices
	Starting AA/AB first half-transformation.
	Sorting AA/AB half-transformed integrals.
	Starting BB first half-transformation.
	Sorting BB half-transformed integrals.
	First half integral transformation complete.
	Starting AA second half-transformation.
	Starting AB second half-transformation.
	Starting BB second half-transformation.
	Two-electron integral transformation complete.
	(OO|OV)...
	Starting AA second half-transformation.
	Starting AB second half-transformation.
	Starting BB second half-transformation.
	Two-electron integral transformation complete.
	(OO|VV)...
	Starting AA second half-transformation.
	Starting AB second half-transformation.
	Starting BB second half-transformation.
	Two-electron integral transformation complete.
	(OV|OO)...
	Starting AA/AB first half-transformation.
	Sorting AA/AB half-transformed integrals.
	Starting BB first half-transformation.
	Sorting BB half-transformed integrals.
	First half integral transformation complete.
	Starting AA second half-transformation.
	Starting AB second half-transformation.
	Starting BB second half-transformation.
	Two-electron integral transformation complete.
	(OV|OV)...
	Starting AA second half-transformation.
	Starting AB second half-transformation.
	Starting BB second half-transformation.
	Two-electron integral transformation complete.
	(OV|VV)...
	Starting AA second half-transformation.
	Starting AB second half-transformation.
	Starting BB second half-transformation.
	Two-electron integral transformation complete.
	(VV|OO)...
	Starting AA/AB first half-transformation.
	Sorting AA/AB half-transformed integrals.
	Starting BB first half-transformation.
	Sorting BB half-transformed integrals.
	First half integral transformation complete.
	Starting AA second half-transformation.
	Starting AB second half-transformation.
	Starting BB second half-transformation.
	Two-electron integral transformation complete.
	(VV|OV)...
	Starting AA second half-transformation.
	Starting AB second half-transformation.
	Starting BB second half-transformation.
	Two-electron integral transformation complete.
	(VV|VV)...
	Starting AA second half-transformation.
	Starting AB second half-transformation.
	Starting BB second half-transformation.
	Two-electron integral transformation complete.
	Frozen core energy     =      0.00000000000000

	Size of irrep 0 of <AB|CD> integrals:      0.012 (MW) /      0.095 (MB)
	Size of irrep 1 of <AB|CD> integrals:      0.004 (MW) /      0.031 (MB)
	Size of irrep 2 of <AB|CD> integrals:      0.008 (MW) /      0.065 (MB)
	Size of irrep 3 of <AB|CD> integrals:      0.008 (MW) /      0.065 (MB)
	Total:                                     0.032 (MW) /      0.255 (MB)

	Size of irrep 0 of <ab|cd> integrals:      0.013 (MW) /      0.106 (MB)
	Size of irrep 1 of <ab|cd> integrals:      0.005 (MW) /      0.037 (MB)
	Size of irrep 2 of <ab|cd> integrals:      0.011 (MW) /      0.085 (MB)
	Size of irrep 3 of <ab|cd> integrals:      0.008 (MW) /      0.068 (MB)
	Total:                                     0.037 (MW) /      0.295 (MB)

	Size of irrep 0 of <Ab|Cd> integrals:      0.063 (MW) /      0.504 (MB)
	Size of irrep 1 of <Ab|Cd> integrals:      0.017 (MW) /      0.135 (MB)
	Size of irrep 2 of <Ab|Cd> integrals:      0.037 (MW) /      0.298 (MB)
	Size of irrep 3 of <Ab|Cd> integrals:      0.033 (MW) /      0.265 (MB)
	Total:                                     0.150 (MW) /      1.202 (MB)

	Size of irrep 0 of <IA|BC> integrals:      0.012 (MW) /      0.100 (MB)
	Size of irrep 1 of <IA|BC> integrals:      0.002 (MW) /      0.018 (MB)
	Size of irrep 2 of <IA|BC> integrals:      0.006 (MW) /      0.048 (MB)
	Size of irrep 3 of <IA|BC> integrals:      0.006 (MW) /      0.048 (MB)
	Total:                                     0.027 (MW) /      0.213 (MB)

	Size of irrep 0 of <ia|bc> integrals:      0.012 (MW) /      0.093 (MB)
	Size of irrep 1 of <ia|bc> integrals:      0.002 (MW) /      0.014 (MB)
	Size of irrep 2 of <ia|bc> integrals:      0.005 (MW) /      0.038 (MB)
	Size of irrep 3 of <ia|bc> integrals:      0.006 (MW) /      0.046 (MB)
	Total:                                     0.024 (MW) /      0.191 (MB)

	Size of irrep 0 of <Ia|Bc> integrals:      0.013 (MW) /      0.104 (MB)
	Size of irrep 1 of <Ia|Bc> integrals:      0.002 (MW) /      0.020 (MB)
	Size of irrep 2 of <Ia|Bc> integrals:      0.007 (MW) /      0.056 (MB)
	Size of irrep 3 of <Ia|Bc> integrals:      0.006 (MW) /      0.048 (MB)
	Total:                                     0.028 (MW) /      0.228 (MB)

	Size of irrep 0 of <iA|bC> integrals:      0.011 (MW) /      0.090 (MB)
	Size of irrep 1 of <iA|bC> integrals:      0.002 (MW) /      0.012 (MB)
	Size of irrep 2 of <iA|bC> integrals:      0.004 (MW) /      0.031 (MB)
	Size of irrep 3 of <iA|bC> integrals:      0.006 (MW) /      0.045 (MB)
	Total:                                     0.022 (MW) /      0.179 (MB)

	Size of irrep 0 of tIjAb amplitudes:       0.003 (MW) /      0.020 (MB)
	Size of irrep 1 of tIjAb amplitudes:       0.000 (MW) /      0.001 (MB)
	Size of irrep 2 of tIjAb amplitudes:       0.001 (MW) /      0.005 (MB)
	Size of irrep 3 of tIjAb amplitudes:       0.001 (MW) /      0.009 (MB)
	Total:                                     0.004 (MW) /      0.034 (MB)

	Nuclear Rep. energy          =      4.33967451535421
	SCF energy                   =    -75.40345508146788
	One-electron energy          =   -112.54792346470998
	Two-electron (AA) energy     =      7.72865595461165
	Two-electron (BB) energy     =      4.62106802119413
	Two-electron (AB) energy     =     20.45506989208219
	Two-electron energy          =     32.80479386788797
	Reference energy             =    -75.40345508146780

*** tstop() called on c1-17.compute.lan at Tue Feb 23 13:33:38 2021
Module time:
	user time   =       0.05 seconds =       0.00 minutes
	system time =       0.17 seconds =       0.00 minutes
	total time  =          0 seconds =       0.00 minutes
Total time:
	user time   =       1.80 seconds =       0.03 minutes
	system time =       1.41 seconds =       0.02 minutes
	total time  =          5 seconds =       0.08 minutes
            **************************
            *                        *
            *        CCENERGY        *
            *                        *
            **************************

    Nuclear Rep. energy (wfn)     =    4.339674515354210
    SCF energy          (wfn)     =  -75.403455081467882
    Reference energy    (file100) =  -75.403455081467797

    Input parameters:
    -----------------
    Wave function   =     CCSD
    Reference wfn   =     UHF
    Brueckner       =     No
    Memory (Mbytes) =     10000.0
    Maxiter         =     50
    R_Convergence   =     1.0e-10
    E_Convergence   =     1.0e-10
    Restart         =     Yes
    DIIS            =     Yes
    AO Basis        =     NONE
    ABCD            =     NEW
    Cache Level     =     2
    Cache Type      =     LRU
    Print Level     =     1
    Num. of threads =     1
    # Amps to Print =     10
    Print MP2 Amps? =     No
    Analyze T2 Amps =     No
    Print Pair Ener =     No
    Local CC        =     No
    SCS-MP2         =     False
    SCSN-MP2        =     False
    SCS-CCSD        =     False

    Using old T1 amplitudes.
    Using old T2 amplitudes.
MP2 correlation energy -0.1642684663254736
                Solving CC Amplitude Equations
                ------------------------------
  Iter             Energy              RMS        T1Diag      D1Diag    New D1Diag    D2Diag
  ----     ---------------------    ---------   ----------  ----------  ----------   --------
     0        -0.175299075898874    0.000e+00    0.014898    0.000000    0.000000    0.000000
     1        -0.178845925500299    4.622e-02    0.015473    0.000000    0.000000    0.000000
     2        -0.178947801072205    1.438e-02    0.015207    0.000000    0.000000    0.000000
     3        -0.179147225419934    4.010e-03    0.015259    0.000000    0.000000    0.000000
     4        -0.179164118168206    9.453e-04    0.015317    0.000000    0.000000    0.000000
     5        -0.179174117965433    2.929e-04    0.015316    0.000000    0.000000    0.000000
     6        -0.179175486689519    1.156e-04    0.015317    0.000000    0.000000    0.000000
     7        -0.179175915707633    4.249e-05    0.015315    0.000000    0.000000    0.000000
     8        -0.179176194093698    1.967e-05    0.015314    0.000000    0.000000    0.000000
     9        -0.179176373537469    7.074e-06    0.015314    0.000000    0.000000    0.000000
    10        -0.179176476152303    2.335e-06    0.015315    0.000000    0.000000    0.000000
    11        -0.179176514975399    7.249e-07    0.015315    0.000000    0.000000    0.000000
    12        -0.179176523146087    2.120e-07    0.015315    0.000000    0.000000    0.000000
    13        -0.179176525238479    6.932e-08    0.015315    0.000000    0.000000    0.000000
    14        -0.179176525323766    2.209e-08    0.015315    0.000000    0.000000    0.000000
    15        -0.179176525451116    8.574e-09    0.015315    0.000000    0.000000    0.000000
    16        -0.179176525505576    3.237e-09    0.015315    0.000000    0.000000    0.000000
    17        -0.179176525536067    1.185e-09    0.015315    0.000000    0.000000    0.000000
    18        -0.179176525552216    5.267e-10    0.015315    0.000000    0.000000    0.000000
    19        -0.179176525559521    2.306e-10    0.015315    0.000000    0.000000    0.000000
    20        -0.179176525561832    9.595e-11    0.015315    0.000000    0.000000    0.000000

    Iterations converged.


    Largest TIA Amplitudes:
              4  21        -0.0204400527
              3  15        -0.0182364619
              4  22        -0.0116322969
              3  16        -0.0106249999
              2   3         0.0096663528
              2   1         0.0086007879
              1   2        -0.0064549214
              2   9        -0.0051173098
              3  18        -0.0040144455
              4  24        -0.0034221404

    Largest Tia Amplitudes:
              3  22        -0.0185927739
              3  23        -0.0114257859
              2   3         0.0075571512
              1   3        -0.0056396759
              1   6        -0.0055632342
              2   9        -0.0053437290
              2   1         0.0053292844
              1   9        -0.0050558563
              1   5        -0.0040559052
              2   8         0.0036740145

    Largest TIJAB Amplitudes:
      4   3  24  18        -0.0207967307
      4   3  13   6        -0.0156743170
      3   2  18   7         0.0135452823
      4   2  24   7         0.0130746176
      4   3  21  18        -0.0118376358
      3   2  17   5        -0.0117060141
      4   3  14  11        -0.0116485023
      4   2  23   5        -0.0109884485
      4   3  24  15        -0.0109199430
      3   2  18   3         0.0108631953

    Largest Tijab Amplitudes:
      3   2  24   5        -0.0125525652
      3   2  25   7         0.0125069757
      3   2  25   3         0.0104316321
      3   1  15  13         0.0104095962
      3   2  23   3         0.0094767630
      3   2  25   1         0.0091746284
      3   2  23   5         0.0091744188
      3   2  22   1         0.0091143287
      3   2  22   7         0.0085544172
      2   1  18  15        -0.0083095318

    Largest TIjAb Amplitudes:
      4   3  24  25        -0.0386187679
      2   2   5   5        -0.0285787807
      3   3  18  25        -0.0273145032
      2   2   7   7        -0.0221415401
      4   3  24  22        -0.0214604513
      4   3  21  25        -0.0208564598
      2   2   3   3        -0.0207253991
      4   3  21  22        -0.0190677402
      2   2   3   5        -0.0185916904
      4   1  13  15        -0.0184116927

    SCF energy       (wfn)                    =  -75.403455081467882
    Reference energy (file100)                =  -75.403455081467797

    Opposite-spin MP2 correlation energy      =   -0.123930747121907
    Same-spin MP2 correlation energy          =   -0.040337719203566
    MP2 correlation energy                    =   -0.164268466325474
      * MP2 total energy                      =  -75.567723547793264

    Opposite-spin CCSD correlation energy     =   -0.140989706585341
    Same-spin CCSD correlation energy         =   -0.038186818976491
    CCSD correlation energy                   =   -0.179176525561832
      * CCSD total energy                     =  -75.582631607029626


			**************************
			*                        *
			*         CCHBAR         *
			*                        *
			**************************


			**************************
			*        CCLAMBDA        *
			**************************


	Nuclear Rep. energy (wfn)     =    4.339674515354210
	Reference           (wfn)     =                    2
	SCF energy          (wfn)     =  -75.403455081467882
	Reference energy    (CC_INFO) =  -75.403455081467797
	CCSD energy         (CC_INFO) =   -0.179176525561832
	Total CCSD energy   (CC_INFO) =  -75.582631607029626

	Input parameters:
	-----------------
	Maxiter           =     50
	Convergence       = 1.0e-07
	Restart           =     No
	Cache Level       =     2
	Model III         =     No
	DIIS              =     Yes
	AO Basis          =     No
	ABCD              =     NEW
	Local CC          =     No
	Parameters for left-handed eigenvectors:
	    Irr   Root  Ground-State?    EOM energy        R0
	  1   0     0        Yes       0.0000000000   1.0000000000
	Labels for eigenvector 1:
	LIA 0 -1, Lia 0 -1, LIJAB 0 -1, Lijab 0 -1, LIjAb 0 -1, 2LIjAb - LIjbA 0 -1
	Symmetry of left-hand state: B1
	Symmetry of left-hand eigenvector: A1

	          Solving Lambda Equations
	          ------------------------
	Iter     PseudoEnergy or Norm         RMS  
	----     ---------------------     --------
	   0        -0.179259550973928    6.990e-08
	   1        -0.176263246769428    1.442e-02
	   2        -0.175585732184971    2.786e-03
	   3        -0.175446665922198    1.408e-03
	   4        -0.175429719784978    3.483e-04
	   5        -0.175434277053905    1.005e-04
	   6        -0.175433110134483    4.499e-05
	   7        -0.175431919706212    1.811e-05
	   8        -0.175431730758799    6.618e-06
	   9        -0.175431709078965    1.841e-06
	  10        -0.175431709893643    5.919e-07
	  11        -0.175431704321409    2.272e-07
	  12        -0.175431703491875    9.197e-08

	Largest LIA Amplitudes:
	          4  21        -0.0140893441
	          3  15        -0.0125568045
	          4  22        -0.0076446956
	          3  16        -0.0071616135
	          2   3         0.0059590545
	          2   1         0.0046226489
	          2   9        -0.0045026181
	          1   2        -0.0044461804
	          2   8         0.0037518120
	          1   9         0.0022587675

	Largest Lia Amplitudes:
	          3  22        -0.0114538005
	          3  23        -0.0069458693
	          1   6        -0.0054302363
	          1   9        -0.0053557734
	          2   9        -0.0048287917
	          1   3        -0.0045320500
	          2   7        -0.0042912285
	          2   8         0.0041504345
	          1   5        -0.0040758276
	          1   4         0.0039043921

	Largest LIJAB Amplitudes:
	  4   3  24  18        -0.0206387261
	  4   3  13   6        -0.0151934350
	  3   2  18   7         0.0134069005
	  4   2  24   7         0.0129035353
	  4   3  21  18        -0.0116542579
	  4   3  14  11        -0.0114125892
	  3   2  17   5        -0.0113129688
	  4   3  24  15        -0.0107671987
	  3   2  18   3         0.0106776336
	  4   2  23   5        -0.0105968413

	Largest Lijab Amplitudes:
	  3   2  25   7         0.0122927073
	  3   2  24   5        -0.0120903226
	  3   2  25   3         0.0101560279
	  3   1  15  13         0.0101133368
	  3   2  23   3         0.0090161016
	  3   2  25   1         0.0088800627
	  3   2  23   5         0.0087946185
	  3   2  22   1         0.0086064619
	  3   2  22   7         0.0082916435
	  2   1  18  15        -0.0080750653

	Largest LIjAb Amplitudes:
	  4   3  24  25        -0.0381379872
	  2   2   5   5        -0.0276410099
	  3   3  18  25        -0.0270102282
	  2   2   7   7        -0.0217835549
	  4   3  24  22        -0.0209464717
	  4   3  21  25        -0.0204064042
	  2   2   3   3        -0.0199345353
	  4   3  21  22        -0.0181341097
	  2   2   3   5        -0.0179824938
	  4   1  13  15        -0.0179286494

	Iterations converged.

	Overlap <L|e^T> =        0.94711727306

			**************************
			*                        *
			*        CCDENSITY       *
			*                        *
			**************************


	Input parameters:
	-----------------
	Wave function    =   CCSD
	Reference wfn    =   UHF
	Dertype          = 1
	Tolerance        = 1.0e-14
	Cache Level      = 2
	AO Basis         = No
	OPDM Only        = No
	Relax OPDM       = Yes
	Compute Xi       = No
	Use Zeta         = No
	Xi connected     = Yes
	Compute NO       = No

	Nuclear Rep. energy (wfn)     =    4.339674515354210
	SCF energy          (wfn)     =  -75.403455081467882
	Reference energy    (file100) =  -75.403455081467797
	CCSD energy         (CC_INFO) =   -0.179176525561832
	Total CCSD energy   (CC_INFO) =  -75.582631607029626
	Number of States = 1

	Ground?  State     EOM Energy       R0
	  Yes     0 A1    0.0000000000   1.00000000
  Cartesian Displacement SALCs
  By SALC:
  Number of SALCs: 2, nirreps: A1
  Project out translations: False
  Project out rotations: False
	irrep = 0, ncomponent = 1
		0: atom 0, direction z, coef 1.000000
	irrep = 0, ncomponent = 1
		0: atom 1, direction z, coef 1.000000

  By Atomic Center:
  Number of atomic centers: 2
   Atomic Center 0:
	x component, size = 0
	y component, size = 0
	z component, size = 1
		0: salc 0, irrep 0, coef 1.000000
   Atomic Center 1:
	x component, size = 0
	y component, size = 0
	z component, size = 1
		0: salc 1, irrep 0, coef 1.000000

    Molecular point group: c2v
    Full point group: C_inf_v

    Geometry (in Bohr), charge = 0, multiplicity = 2:

       Center              X                  Y                   Z       
    ------------   -----------------  -----------------  -----------------
         O            0.000000000000     0.000000000000    -0.109269527586
         H            0.000000000000     0.000000000000     1.734186697459

	Presorting MO-basis TPDMs.
	Sorting File: MO TPDM (AA|AA) nbuckets = 1
	Sorting File: MO TPDM (AA|aa) nbuckets = 1
	Sorting File: MO TPDM (aa|aa) nbuckets = 1
	Starting first half-transformation.
	Sorting half-transformed TPDMs.
	First half integral transformation complete.


  -Nuclear Repulsion Energy 1st Derivatives:
     Atom            X                  Y                   Z
    ------   -----------------  -----------------  -----------------
       1        0.000000000000     0.000000000000     2.354096862402
       2        0.000000000000     0.000000000000    -2.354096862402


  -Core Hamiltonian Gradient:
     Atom            X                  Y                   Z
    ------   -----------------  -----------------  -----------------
       1        0.000000000000     0.000000000000    -5.760736891205
       2        0.000000000000     0.000000000000     5.760736891205


  -Lagrangian contribution to gradient:
     Atom            X                  Y                   Z
    ------   -----------------  -----------------  -----------------
       1        0.000000000000     0.000000000000     0.409066974667
       2        0.000000000000     0.000000000000    -0.409066974667


  -Two-electron contribution to gradient:
     Atom            X                  Y                   Z
    ------   -----------------  -----------------  -----------------
       1        0.000000000000     0.000000000000     2.999150529618
       2        0.000000000000     0.000000000000    -2.999150529618


  -Total gradient:
     Atom            X                  Y                   Z
    ------   -----------------  -----------------  -----------------
       1        0.000000000000     0.000000000000     0.001577475482
       2        0.000000000000     0.000000000000    -0.001577475482


			-----------------------------------------
			 OPTKING 2.0: for geometry optimizations 
			  - R.A. King,  Bethel University        
			-----------------------------------------

	Previous internal coordinate definitions found.
	---Fragment 1 Geometry and Gradient---
	 O           0.0000000000        0.0000000000       -0.1092695276
	 H           0.0000000000        0.0000000000        1.7341866975
	             0.0000000000        0.0000000000        0.0015774755
	             0.0000000000        0.0000000000       -0.0015774755

	---Fragment 1 Intrafragment Coordinates---
	 - Coordinate -           - BOHR/RAD -       - ANG/DEG -
	 R(1,2)           =         1.843456	       0.975515

	Current energy   :       -75.5826316070

	Energy change for the previous step:
		Projected    :        -0.0002259333
		Actual       :        -0.0008111901
	Energy ratio indicates good step: Trust radius increased to 1.000e+00.


	Performing BFGS update.
	Previous computed or guess Hessian on step 1.
	Steps to be used in Hessian update: 1
	Taking RFO optimization step.
	Going to follow RFO solution 1.
	Using RFO vector 1.
	Norm of target step-size    0.00285
	Projected energy change by RFO approximation:        -0.0000004310

	Back-transformation to cartesian coordinates...
	Successfully converged to displaced geometry.

	--- Internal Coordinate Step in ANG or DEG, aJ/ANG or AJ/DEG ---
	 ---------------------------------------------------------------------------
	   Coordinate                Previous        Force       Change         New 
	   ----------                --------       ------       ------       ------
	    1 R(1,2)          =      0.975515     0.012996     0.001510     0.977025
	 ---------------------------------------------------------------------------
	Successfully symmetrized geometry.

  ==> Convergence Check <==

  Measures of convergence in internal coordinates in au.
  Criteria marked as inactive (o), active & met (*), and active & unmet ( ).
  ---------------------------------------------------------------------------------------------
   Step     Total Energy     Delta E     MAX Force     RMS Force      MAX Disp      RMS Disp   
  ---------------------------------------------------------------------------------------------
    Convergence Criteria             o    2.00e-06 *    1.00e-06 *    6.00e-06 *    4.00e-06 *
  ---------------------------------------------------------------------------------------------
      2     -75.58263161   -8.11e-04 o    1.58e-03      1.58e-03      2.85e-03      2.85e-03    ~
  ---------------------------------------------------------------------------------------------

	Writing optimization data to binary file.
	Structure for next step:
	Cartesian Geometry (in Angstrom)
	    O     0.0000000000   0.0000000000  -0.0585777546
	    H     0.0000000000   0.0000000000   0.9184468868
			--------------------------
			 OPTKING Finished Execution 
			--------------------------

    Structure for next step:
    Molecular point group: c2v
    Full point group: C_inf_v

    Geometry (in Angstrom), charge = 0, multiplicity = 2:

    O       
    H             1          R1

    R1        =    0.9770246452

gradient() will perform analytic gradient computation.

*** tstart() called on c1-17.compute.lan
*** at Tue Feb 23 13:33:41 2021

   => Loading Basis Set <=

    Name: AUG-CC-PVDZ
    Role: ORBITAL
    Keyword: BASIS
    atoms 1 entry O          line   254 file /apps/gb/PSI4/1.4.0/share/psi4/basis/aug-cc-pvdz.gbs 
    atoms 2 entry H          line    40 file /apps/gb/PSI4/1.4.0/share/psi4/basis/aug-cc-pvdz.gbs 


         ---------------------------------------------------------
                                   SCF
               by Justin Turney, Rob Parrish, Andy Simmonett
                          and Daniel G. A. Smith
                              UHF Reference
                        1 Threads,   9536 MiB Core
         ---------------------------------------------------------

  ==> Geometry <==

    Molecular point group: c2v
    Full point group: C_inf_v

    Geometry (in Angstrom), charge = 0, multiplicity = 2:

       Center              X                  Y                   Z               Mass       
    ------------   -----------------  -----------------  -----------------  -----------------
         O            0.000000000000     0.000000000000    -0.057912425569    15.994914619570
         H            0.000000000000     0.000000000000     0.919112219654     1.007825032230

  Running in c2v symmetry.

  Rotational constants: A = ************  B =     18.62676  C =     18.62676 [cm^-1]
  Rotational constants: A = ************  B = 558416.18757  C = 558416.18757 [MHz]
  Nuclear repulsion =    4.332969189730661

  Charge       = 0
  Multiplicity = 2
  Electrons    = 9
  Nalpha       = 5
  Nbeta        = 4

  ==> Algorithm <==

  SCF Algorithm Type is PK.
  DIIS enabled.
  MOM disabled.
  Fractional occupation disabled.
  Guess Type is READ.
  Energy threshold   = 1.00e-10
  Density threshold  = 1.00e-10
  Integral threshold = 0.00e+00

  ==> Primary Basis <==

  Basis Set: AUG-CC-PVDZ
    Blend: AUG-CC-PVDZ
    Number of shells: 14
    Number of basis function: 32
    Number of Cartesian functions: 34
    Spherical Harmonics?: true
    Max angular momentum: 2

   => Loading Basis Set <=

    Name: AUG-CC-PVDZ
    Role: ORBITAL
    Keyword: BASIS
    atoms 1 entry O          line   254 file /apps/gb/PSI4/1.4.0/share/psi4/basis/aug-cc-pvdz.gbs 
    atoms 2 entry H          line    40 file /apps/gb/PSI4/1.4.0/share/psi4/basis/aug-cc-pvdz.gbs 

  Reading orbitals from file 180, no projection.

  ==> Pre-Iterations <==

   -------------------------------------------------------
    Irrep   Nso     Nmo     Nalpha   Nbeta   Ndocc  Nsocc
   -------------------------------------------------------
     A1        16      16       0       0       0       0
     A2         2       2       0       0       0       0
     B1         7       7       0       0       0       0
     B2         7       7       0       0       0       0
   -------------------------------------------------------
    Total      32      32       5       4       4       1
   -------------------------------------------------------

  ==> Integral Setup <==

  Using in-core PK algorithm.
   Calculation information:
      Number of atoms:                   2
      Number of AO shells:              14
      Number of primitives:             32
      Number of atomic orbitals:        34
      Number of basis functions:        32

      Integral cutoff                 1.00e-12
      Number of threads:                 1

  Performing in-core PK
  Using 279312 doubles for integral storage.
  We computed 5565 shell quartets total.
  Whereas there are 5565 unique shell quartets.

  ==> DiskJK: Disk-Based J/K Matrices <==

    J tasked:                  Yes
    K tasked:                  Yes
    wK tasked:                  No
    Memory [MiB]:             7152
    Schwarz Cutoff:          1E-12

    OpenMP threads:              1

  Minimum eigenvalue in the overlap matrix is 3.4642586564E-03.
  Using Symmetric Orthogonalization.

  SCF Guess: Orbitals guess was supplied from a previous computation.

  ==> Iterations <==

                        Total Energy        Delta E     RMS |[F,P]|

   @UHF iter   0:   -75.40219456248269   -7.54022e+01   2.17876e-04 
   @UHF iter   1:   -75.40339244691333   -1.19788e-03   2.70220e-05 DIIS
   @UHF iter   2:   -75.40339256783825   -1.20925e-07   8.38796e-06 DIIS
   @UHF iter   3:   -75.40339257804834   -1.02101e-08   2.29036e-06 DIIS
   @UHF iter   4:   -75.40339257970649   -1.65815e-09   9.49332e-07 DIIS
   @UHF iter   5:   -75.40339258012727   -4.20783e-10   4.29537e-07 DIIS
   @UHF iter   6:   -75.40339258026465   -1.37376e-10   1.66721e-07 DIIS
   @UHF iter   7:   -75.40339258028646   -2.18137e-11   3.64733e-08 DIIS
   @UHF iter   8:   -75.40339258028725   -7.81597e-13   4.36793e-09 DIIS
   @UHF iter   9:   -75.40339258028730   -5.68434e-14   9.54194e-10 DIIS
   @UHF iter  10:   -75.40339258028732   -1.42109e-14   2.93204e-10 DIIS
   @UHF iter  11:   -75.40339258028732    0.00000e+00   8.57299e-11 DIIS
  Energy and wave function converged.


  ==> Post-Iterations <==

   @Spin Contamination Metric:   6.657710425E-03
   @S^2 Expected:                7.500000000E-01
   @S^2 Observed:                7.566577104E-01
   @S   Expected:                5.000000000E-01
   @S   Observed:                5.000000000E-01

    Orbital Energies [Eh]
    ---------------------

    Alpha Occupied:                                                       

       1A1   -20.651952     2A1    -1.390979     3A1    -0.682215  
       1B1    -0.656849     1B2    -0.561304  

    Alpha Virtual:                                                        

       4A1     0.035597     5A1     0.178354     2B1     0.185298  
       2B2     0.198224     6A1     0.225079     7A1     0.315385  
       3B1     0.385628     3B2     0.395905     8A1     0.624346  
       9A1     0.838660     1A2     0.956690    10A1     0.958382  
       4B1     1.086644     4B2     1.117034    11A1     1.316251  
       5B1     1.327194     5B2     1.386072    12A1     1.659374  
       6B1     2.009158     6B2     2.026791    13A1     2.479443  
      14A1     2.759287    15A1     3.484281     2A2     3.484421  
       7B1     3.590985     7B2     3.651253    16A1     4.085530  

    Beta Occupied:                                                        

       1A1   -20.611010     2A1    -1.232673     3A1    -0.637992  
       1B2    -0.511584  

    Beta Virtual:                                                         

       4A1     0.037081     1B1     0.064671     5A1     0.181849  
       2B2     0.201690     6A1     0.231913     2B1     0.258144  
       7A1     0.320526     3B2     0.395418     3B1     0.408541  
       8A1     0.639185     9A1     0.848582     1A2     0.995370  
      10A1     0.996442     4B2     1.119281     4B1     1.132119  
      11A1     1.331345     5B2     1.409329     5B1     1.497924  
      12A1     1.682513     6B1     2.016734     6B2     2.023347  
      13A1     2.511407    14A1     2.775208     2A2     3.584732  
      15A1     3.585435     7B2     3.670051     7B1     3.687873  
      16A1     4.119866  

    Final Occupation by Irrep:
             A1    A2    B1    B2 
    DOCC [     3,    0,    0,    1 ]
    SOCC [     0,    0,    1,    0 ]

  @UHF Final Energy:   -75.40339258028732

   => Energetics <=

    Nuclear Repulsion Energy =              4.3329691897306608
    One-Electron Energy =                -112.5361657326138243
    Two-Electron Energy =                  32.7998039625958526
    Total Energy =                        -75.4033925802873171

  UHF NO Occupations:
  HONO-2 :    2 A1 1.9992258
  HONO-1 :    3 A1 1.9980041
  HONO-0 :    1 B1 1.0000000
  LUNO+0 :    4 A1 0.0019959
  LUNO+1 :    5 A1 0.0007742
  LUNO+2 :    2 B2 0.0005608
  LUNO+3 :    6 A1 0.0000004


Computation Completed


Properties will be evaluated at   0.000000,   0.000000,   0.000000 [a0]

Properties computed using the SCF density matrix

  Nuclear Dipole Moment: [e a0]
     X:     0.0000      Y:     0.0000      Z:     0.8614

  Electronic Dipole Moment: [e a0]
     X:     0.0000      Y:     0.0000      Z:    -0.1625

  Dipole Moment: [e a0]
     X:     0.0000      Y:     0.0000      Z:     0.6988     Total:     0.6988

  Dipole Moment: [D]
     X:     0.0000      Y:     0.0000      Z:     1.7763     Total:     1.7763


*** tstop() called on c1-17.compute.lan at Tue Feb 23 13:33:41 2021
Module time:
	user time   =       0.29 seconds =       0.00 minutes
	system time =       0.01 seconds =       0.00 minutes
	total time  =          0 seconds =       0.00 minutes
Total time:
	user time   =       2.79 seconds =       0.05 minutes
	system time =       2.49 seconds =       0.04 minutes
	total time  =          8 seconds =       0.13 minutes
 MINTS: Wrapper to libmints.
   by Justin Turney

   Calculation information:
      Number of threads:                 1
      Number of atoms:                   2
      Number of AO shells:              14
      Number of SO shells:              14
      Number of primitives:             32
      Number of atomic orbitals:        34
      Number of basis functions:        32

      Number of irreps:                  4
      Integral cutoff                 0.00e+00
      Number of functions per irrep: [  16    2    7    7 ]

 OEINTS: Overlap, kinetic, potential, dipole, and quadrupole integrals
         stored in file 35.

      Computing two-electron integrals...done
      Computed 33337 non-zero two-electron integrals.
        Stored in file 33.


*** tstart() called on c1-17.compute.lan
*** at Tue Feb 23 13:33:41 2021


	Wfn Parameters:
	--------------------
	Wavefunction         = CCSD
	Number of irreps     = 4
	Number of MOs        = 32
	Number of active MOs = 32
	AO-Basis             = NONE
	Semicanonical        = false
	Reference            = UHF
	Print Level          = 1

	IRREP	# MOs	# FZDC	# DOCC	# SOCC	# VIRT	# FZVR
	-----	-----	------	------	------	------	------
	 A1	   16	    0	    3	    0	    13	    0
	 A2	   2	    0	    0	    0	    2	    0
	 B1	   7	    0	    0	    1	    6	    0
	 B2	   7	    0	    1	    0	    6	    0
	Transforming integrals...
	IWL integrals will be deleted.
	(OO|OO)...
	Presorting SO-basis two-electron integrals.
	Sorting File: SO Ints (nn|nn) nbuckets = 1
	Transforming the one-electron integrals and constructing Fock matrices
	Starting AA/AB first half-transformation.
	Sorting AA/AB half-transformed integrals.
	Starting BB first half-transformation.
	Sorting BB half-transformed integrals.
	First half integral transformation complete.
	Starting AA second half-transformation.
[...]
	Size of irrep 2 of <Ia|Bc> integrals:      0.007 (MW) /      0.056 (MB)
	Size of irrep 3 of <Ia|Bc> integrals:      0.006 (MW) /      0.048 (MB)
	Total:                                     0.028 (MW) /      0.228 (MB)

	Size of irrep 0 of <iA|bC> integrals:      0.011 (MW) /      0.090 (MB)
	Size of irrep 1 of <iA|bC> integrals:      0.002 (MW) /      0.012 (MB)
	Size of irrep 2 of <iA|bC> integrals:      0.004 (MW) /      0.031 (MB)
	Size of irrep 3 of <iA|bC> integrals:      0.006 (MW) /      0.045 (MB)
	Total:                                     0.022 (MW) /      0.179 (MB)

	Size of irrep 0 of tIjAb amplitudes:       0.003 (MW) /      0.020 (MB)
	Size of irrep 1 of tIjAb amplitudes:       0.000 (MW) /      0.001 (MB)
	Size of irrep 2 of tIjAb amplitudes:       0.001 (MW) /      0.005 (MB)
	Size of irrep 3 of tIjAb amplitudes:       0.001 (MW) /      0.009 (MB)
	Total:                                     0.004 (MW) /      0.034 (MB)

	Nuclear Rep. energy          =      4.33223726911545
	SCF energy                   =    -75.40338549785766
	One-electron energy          =   -112.53488184234803
	Two-electron (AA) energy     =      7.72762646285455
	Two-electron (BB) energy     =      4.61983758584464
	Two-electron (AB) energy     =     20.45179502667576
	Two-electron energy          =     32.79925907537496
	Reference energy             =    -75.40338549785763

*** tstop() called on c1-17.compute.lan at Tue Feb 23 13:33:51 2021
Module time:
	user time   =       0.07 seconds =       0.00 minutes
	system time =       0.09 seconds =       0.00 minutes
	total time  =          1 seconds =       0.02 minutes
Total time:
	user time   =       5.95 seconds =       0.10 minutes
	system time =       5.65 seconds =       0.09 minutes
	total time  =         18 seconds =       0.30 minutes
            **************************
            *                        *
            *        CCENERGY        *
            *                        *
            **************************

    Nuclear Rep. energy (wfn)     =    4.332237269115451
    SCF energy          (wfn)     =  -75.403385497857656
    Reference energy    (file100) =  -75.403385497857627

    Input parameters:
    -----------------
    Wave function   =     CCSD
    Reference wfn   =     UHF
    Brueckner       =     No
    Memory (Mbytes) =     10000.0
    Maxiter         =     50
    R_Convergence   =     1.0e-10
    E_Convergence   =     1.0e-10
    Restart         =     Yes
    DIIS            =     Yes
    AO Basis        =     NONE
    ABCD            =     NEW
    Cache Level     =     2
    Cache Type      =     LRU
    Print Level     =     1
    Num. of threads =     1
    # Amps to Print =     10
    Print MP2 Amps? =     No
    Analyze T2 Amps =     No
    Print Pair Ener =     No
    Local CC        =     No
    SCS-MP2         =     False
    SCSN-MP2        =     False
    SCS-CCSD        =     False

    Using old T1 amplitudes.
    Using old T2 amplitudes.
MP2 correlation energy -0.1643330475417056
                Solving CC Amplitude Equations
                ------------------------------
  Iter             Energy              RMS        T1Diag      D1Diag    New D1Diag    D2Diag
  ----     ---------------------    ---------   ----------  ----------  ----------   --------
     0        -0.179248545215974    0.000e+00    0.015341    0.000000    0.000000    0.000000
     1        -0.179248592059310    6.607e-07    0.015341    0.000000    0.000000    0.000000
     2        -0.179248595858453    1.647e-07    0.015341    0.000000    0.000000    0.000000
     3        -0.179248599852046    5.699e-08    0.015341    0.000000    0.000000    0.000000
     4        -0.179248600277941    2.245e-08    0.015341    0.000000    0.000000    0.000000
     5        -0.179248600574409    8.436e-09    0.015341    0.000000    0.000000    0.000000
     6        -0.179248600569234    3.504e-09    0.015341    0.000000    0.000000    0.000000
     7        -0.179248600599937    1.419e-09    0.015341    0.000000    0.000000    0.000000
     8        -0.179248600611420    4.149e-10    0.015341    0.000000    0.000000    0.000000
     9        -0.179248600614575    1.147e-10    0.015341    0.000000    0.000000    0.000000
    10        -0.179248600616035    3.453e-11    0.015341    0.000000    0.000000    0.000000

    Iterations converged.


    Largest TIA Amplitudes:
              4  21        -0.0204759696
              3  15        -0.0182650318
              4  22        -0.0116400562
              3  16        -0.0106260472
              2   3         0.0096904866
              2   1         0.0086314236
              1   2        -0.0064565955
              2   9        -0.0051449883
              3  18        -0.0040217541
              4  24        -0.0034307874

    Largest Tia Amplitudes:
              3  22        -0.0186268098
              3  23        -0.0114354474
              2   3         0.0075359348
              1   3        -0.0056642324
              1   6        -0.0055650993
              2   9        -0.0053828913
              2   1         0.0053022080
              1   9        -0.0050650830
              1   5        -0.0040559303
              2   8         0.0037004068

    Largest TIJAB Amplitudes:
      4   3  24  18        -0.0208079871
      4   3  13   6        -0.0156752858
      3   2  18   7         0.0135221814
      4   2  24   7         0.0130514984
      4   3  21  18        -0.0118472125
      3   2  17   5        -0.0116958452
      4   3  14  11        -0.0116486873
      4   2  23   5        -0.0109843758
      4   3  24  15        -0.0109278339
      3   2  18   3         0.0108524097

    Largest Tijab Amplitudes:
      3   2  24   5        -0.0125410605
      3   2  25   7         0.0124827693
      3   2  25   3         0.0104235600
      3   1  15  13         0.0104137045
      3   2  23   3         0.0094696342
      3   2  25   1         0.0092000436
      3   2  23   5         0.0091580267
      3   2  22   1         0.0091422408
      3   2  22   7         0.0085425973
      2   1  18  15        -0.0083114630

    Largest TIjAb Amplitudes:
      4   3  24  25        -0.0386376421
      2   2   5   5        -0.0285299455
      3   3  18  25        -0.0273289046
      2   2   7   7        -0.0220801754
      4   3  24  22        -0.0214810577
      4   3  21  25        -0.0208754657
      2   2   3   3        -0.0207264070
      4   3  21  22        -0.0190852507
      2   2   3   5        -0.0185665795
      4   1  13  15        -0.0184193699

    SCF energy       (wfn)                    =  -75.403385497857656
    Reference energy (file100)                =  -75.403385497857627

    Opposite-spin MP2 correlation energy      =   -0.123982634189322
    Same-spin MP2 correlation energy          =   -0.040350413352383
    MP2 correlation energy                    =   -0.164333047541706
      * MP2 total energy                      =  -75.567718545399330

    Opposite-spin CCSD correlation energy     =   -0.141056699081909
    Same-spin CCSD correlation energy         =   -0.038191901534126
    CCSD correlation energy                   =   -0.179248600616035
      * CCSD total energy                     =  -75.582634098473662


			**************************
			*                        *
			*         CCHBAR         *
			*                        *
			**************************


			**************************
			*        CCLAMBDA        *
			**************************


	Nuclear Rep. energy (wfn)     =    4.332237269115451
	Reference           (wfn)     =                    2
	SCF energy          (wfn)     =  -75.403385497857656
	Reference energy    (CC_INFO) =  -75.403385497857627
	CCSD energy         (CC_INFO) =   -0.179248600616035
	Total CCSD energy   (CC_INFO) =  -75.582634098473662

	Input parameters:
	-----------------
	Maxiter           =     50
	Convergence       = 1.0e-07
	Restart           =     No
	Cache Level       =     2
	Model III         =     No
	DIIS              =     Yes
	AO Basis          =     No
	ABCD              =     NEW
	Local CC          =     No
	Parameters for left-handed eigenvectors:
	    Irr   Root  Ground-State?    EOM energy        R0
	  1   0     0        Yes       0.0000000000   1.0000000000
	Labels for eigenvector 1:
	LIA 0 -1, Lia 0 -1, LIJAB 0 -1, Lijab 0 -1, LIjAb 0 -1, 2LIjAb - LIjbA 0 -1
	Symmetry of left-hand state: B1
	Symmetry of left-hand eigenvector: A1

	          Solving Lambda Equations
	          ------------------------
	Iter     PseudoEnergy or Norm         RMS  
	----     ---------------------     --------
	   0        -0.179331636651159    9.363e-08
	   1        -0.176328681342843    1.444e-02
	   2        -0.175649852964900    2.792e-03
	   3        -0.175510360834152    1.412e-03
	   4        -0.175493309650386    3.492e-04
	   5        -0.175497882476901    1.007e-04
	   6        -0.175496711966396    4.513e-05
	   7        -0.175495516298370    1.819e-05
	   8        -0.175495326416604    6.651e-06
	   9        -0.175495304466071    1.854e-06
	  10        -0.175495305176068    5.983e-07
	  11        -0.175495299479707    2.306e-07
	  12        -0.175495298647662    9.363e-08

	Largest LIA Amplitudes:
	          4  21        -0.0141147292
	          3  15        -0.0125765046
	          4  22        -0.0076483708
	          3  16        -0.0071601992
	          2   3         0.0059848268
	          2   1         0.0046438161
	          2   9        -0.0045265710
	          1   2        -0.0044495971
	          2   8         0.0037702519
	          1   9         0.0022552118

	Largest Lia Amplitudes:
	          3  22        -0.0114738423
	          3  23        -0.0069491121
	          1   6        -0.0054320179
	          1   9        -0.0053643426
	          2   9        -0.0048653904
	          1   3        -0.0045446052
	          2   7        -0.0043024292
	          2   8         0.0041762960
	          1   5        -0.0040714696
	          1   4         0.0039386629

	Largest LIJAB Amplitudes:
	  4   3  24  18        -0.0206506109
	  4   3  13   6        -0.0151942002
	  3   2  18   7         0.0133834071
	  4   2  24   7         0.0128800933
	  4   3  21  18        -0.0116642497
	  4   3  14  11        -0.0114125851
	  3   2  17   5        -0.0113025012
	  4   3  24  15        -0.0107754928
	  3   2  18   3         0.0106669145
	  4   2  23   5        -0.0105923504

	Largest Lijab Amplitudes:
	  3   2  25   7         0.0122685581
	  3   2  24   5        -0.0120783864
	  3   2  25   3         0.0101475676
	  3   1  15  13         0.0101171880
	  3   2  23   3         0.0090083211
	  3   2  25   1         0.0089039500
	  3   2  23   5         0.0087779941
	  3   2  22   1         0.0086320997
	  3   2  22   7         0.0082798046
	  3   2  25   8        -0.0080982252

	Largest LIjAb Amplitudes:
	  4   3  24  25        -0.0381573588
	  2   2   5   5        -0.0275912969
	  3   3  18  25        -0.0270251361
	  2   2   7   7        -0.0217221691
	  4   3  24  22        -0.0209668502
	  4   3  21  25        -0.0204254086
	  2   2   3   3        -0.0199344521
	  4   3  21  22        -0.0181505537
	  2   2   3   5        -0.0179569656
	  4   1  13  15        -0.0179358531

	Iterations converged.

	Overlap <L|e^T> =        0.94703901215

			**************************
			*                        *
			*        CCDENSITY       *
			*                        *
			**************************


	Input parameters:
	-----------------
	Wave function    =   CCSD
	Reference wfn    =   UHF
	Dertype          = 1
	Tolerance        = 1.0e-14
	Cache Level      = 2
	AO Basis         = No
	OPDM Only        = No
	Relax OPDM       = Yes
	Compute Xi       = No
	Use Zeta         = No
	Xi connected     = Yes
	Compute NO       = No

	Nuclear Rep. energy (wfn)     =    4.332237269115451
	SCF energy          (wfn)     =  -75.403385497857656
	Reference energy    (file100) =  -75.403385497857627
	CCSD energy         (CC_INFO) =   -0.179248600616035
	Total CCSD energy   (CC_INFO) =  -75.582634098473662
	Number of States = 1

	Ground?  State     EOM Energy       R0
	  Yes     0 A1    0.0000000000   1.00000000
  Cartesian Displacement SALCs
  By SALC:
  Number of SALCs: 2, nirreps: A1
  Project out translations: False
  Project out rotations: False
	irrep = 0, ncomponent = 1
		0: atom 0, direction z, coef 1.000000
	irrep = 0, ncomponent = 1
		0: atom 1, direction z, coef 1.000000

  By Atomic Center:
  Number of atomic centers: 2
   Atomic Center 0:
	x component, size = 0
	y component, size = 0
	z component, size = 1
		0: salc 0, irrep 0, coef 1.000000
   Atomic Center 1:
	x component, size = 0
	y component, size = 0
	z component, size = 1
		0: salc 1, irrep 0, coef 1.000000

    Molecular point group: c2v
    Full point group: C_inf_v

    Geometry (in Bohr), charge = 0, multiplicity = 2:

       Center              X                  Y                   Z       
    ------------   -----------------  -----------------  -----------------
         O            0.000000000000     0.000000000000    -0.109457112968
         H            0.000000000000     0.000000000000     1.737163813598

	Presorting MO-basis TPDMs.
	Sorting File: MO TPDM (AA|AA) nbuckets = 1
	Sorting File: MO TPDM (AA|aa) nbuckets = 1
	Sorting File: MO TPDM (aa|aa) nbuckets = 1
	Starting first half-transformation.
	Sorting half-transformed TPDMs.
	First half integral transformation complete.


  -Nuclear Repulsion Energy 1st Derivatives:
     Atom            X                  Y                   Z
    ------   -----------------  -----------------  -----------------
       1        0.000000000000     0.000000000000     2.346034969489
       2        0.000000000000     0.000000000000    -2.346034969489


  -Core Hamiltonian Gradient:
     Atom            X                  Y                   Z
    ------   -----------------  -----------------  -----------------
       1        0.000000000000     0.000000000000    -5.746900514698
       2        0.000000000000     0.000000000000     5.746900514698


  -Lagrangian contribution to gradient:
     Atom            X                  Y                   Z
    ------   -----------------  -----------------  -----------------
       1        0.000000000000     0.000000000000     0.408033614608
       2        0.000000000000     0.000000000000    -0.408033614608


  -Two-electron contribution to gradient:
     Atom            X                  Y                   Z
    ------   -----------------  -----------------  -----------------
       1        0.000000000000     0.000000000000     2.992832080068
       2        0.000000000000     0.000000000000    -2.992832080068


  -Total gradient:
     Atom            X                  Y                   Z
    ------   -----------------  -----------------  -----------------
       1        0.000000000000     0.000000000000     0.000000149467
       2        0.000000000000     0.000000000000    -0.000000149467


			-----------------------------------------
			 OPTKING 2.0: for geometry optimizations 
			  - R.A. King,  Bethel University        
			-----------------------------------------

	Previous internal coordinate definitions found.
	---Fragment 1 Geometry and Gradient---
	 O           0.0000000000        0.0000000000       -0.1094571130
	 H           0.0000000000        0.0000000000        1.7371638136
	             0.0000000000        0.0000000000        0.0000001495
	             0.0000000000        0.0000000000       -0.0000001495

	---Fragment 1 Intrafragment Coordinates---
	 - Coordinate -           - BOHR/RAD -       - ANG/DEG -
	 R(1,2)           =         1.846621	       0.977190

	Current energy   :       -75.5826340985

	Energy change for the previous step:
		Projected    :        -0.0000000000
		Actual       :        -0.0000000000

	Performing BFGS update.
	Previous computed or guess Hessian on step 1.
	Denominators (dg)(dq) or (dq)(dq) are very small.
	 Skipping Hessian update for step 5.
	Denominators (dg)(dq) or (dq)(dq) are very small.
	 Skipping Hessian update for step 4.
	Denominators (dg)(dq) or (dq)(dq) are very small.
	 Skipping Hessian update for step 3.
	Steps to be used in Hessian update: 2 1
	Taking RFO optimization step.
	Going to follow RFO solution 1.
	Using RFO vector 1.
	Norm of target step-size    0.00000
	Projected energy change by RFO approximation:        -0.0000000000

	Back-transformation to cartesian coordinates...
	Successfully converged to displaced geometry.

	--- Internal Coordinate Step in ANG or DEG, aJ/ANG or AJ/DEG ---
	 ---------------------------------------------------------------------------
	   Coordinate                Previous        Force       Change         New 
	   ----------                --------       ------       ------       ------
	    1 R(1,2)          =      0.977190     0.000001     0.000000     0.977190
	 ---------------------------------------------------------------------------
	Successfully symmetrized geometry.

  ==> Convergence Check <==

  Measures of convergence in internal coordinates in au.
  Criteria marked as inactive (o), active & met (*), and active & unmet ( ).
  ---------------------------------------------------------------------------------------------
   Step     Total Energy     Delta E     MAX Force     RMS Force      MAX Disp      RMS Disp   
  ---------------------------------------------------------------------------------------------
    Convergence Criteria             o    2.00e-06 *    1.00e-06 *    6.00e-06 *    4.00e-06 *
  ---------------------------------------------------------------------------------------------
      6     -75.58263410   -7.82e-13 o    1.49e-07 *    1.49e-07 *    2.72e-07 *    2.72e-07 *  ~
  ---------------------------------------------------------------------------------------------


  **** Optimization is complete! (in 6 steps) ****

  ==> Optimization Summary <==

  Measures of convergence in internal coordinates in au.
  --------------------------------------------------------------------------------------------------------------- ~
   Step         Total Energy             Delta E       MAX Force       RMS Force        MAX Disp        RMS Disp  ~
  --------------------------------------------------------------------------------------------------------------- ~
      1     -75.581820416957    -75.581820416957      0.03043432      0.03043432      0.05218633      0.05218633  ~
      2     -75.582631607030     -0.000811190073      0.00157748      0.00157748      0.00285277      0.00285277  ~
      3     -75.582634074314     -0.000002467284      0.00015479      0.00015479      0.00028137      0.00028137  ~
      4     -75.582634098247     -0.000000023933      0.00001529      0.00001529      0.00002781      0.00002781  ~
      5     -75.582634098473     -0.000000000226      0.00000151      0.00000151      0.00000275      0.00000275  ~
      6     -75.582634098474     -0.000000000001      0.00000015      0.00000015      0.00000027      0.00000027  ~
  --------------------------------------------------------------------------------------------------------------- ~

	Writing optimization data to binary file.
	Final energy is    -75.5826340984737
	Final (previous) structure:
	Cartesian Geometry (in Angstrom)
	    O     0.0000000000   0.0000000000  -0.0579222095
	    H     0.0000000000   0.0000000000   0.9192674977
	Saving final (previous) structure.
			--------------------------
			 OPTKING Finished Execution 
			--------------------------

    Final optimized geometry and variables:
    Molecular point group: c2v
    Full point group: C_inf_v

    Geometry (in Angstrom), charge = 0, multiplicity = 2:

    O       
    H             1          R1

    R1        =    0.9771897111

	Removing binary optimization data file.
	Cleaning optimization helper files.

    Psi4 stopped on: Tuesday, 23 February 2021 01:33PM
    Psi4 wall time for execution: 0:00:19.19

*** Psi4 exiting successfully. Buy a developer a beer!
