
    -----------------------------------------------------------------------
          Psi4: An Open-Source Ab Initio Electronic Structure Package
                               Psi4 1.3.2 release

                         Git: Rev {HEAD} ecbda83 


    R. M. Parrish, L. A. Burns, D. G. A. Smith, A. C. Simmonett,
    A. E. DePrince III, E. G. Hohenstein, U. Bozkaya, A. Yu. Sokolov,
    R. Di Remigio, R. M. Richard, J. F. Gonthier, A. M. James,
    H. R. McAlexander, A. Kumar, M. Saitow, X. Wang, B. P. Pritchard,
    P. Verma, H. F. Schaefer III, K. Patkowski, R. A. King, E. F. Valeev,
    F. A. Evangelista, J. M. Turney, T. D. Crawford, and C. D. Sherrill,
    J. Chem. Theory Comput. 13(7) pp 3185--3197 (2017).
    (doi: 10.1021/acs.jctc.7b00174)


                         Additional Contributions by
    P. Kraus, H. Kruse, M. H. Lechner, M. C. Schieber, R. A. Shaw,
    A. Alenaizan, R. Galvelis, Z. L. Glick, S. Lehtola, and J. P. Misiewicz

    -----------------------------------------------------------------------


    Psi4 started on: Monday, 08 March 2021 09:48AM

    Process ID: 46287
    Host:       c2-22.compute.lan
    PSIDATADIR: /apps/gb/PSI4/1.3.2/share/psi4
    Memory:     500.0 MiB
    Threads:    12
    
  ==> Input File <==

--------------------------------------------------------------------------
memory 4 GB

molecule  {
0 1
O    0.000000000000    0.000000000000   -0.066342510415
H    0.000000000000   -0.758665844600    0.526451891845
H   -0.000000000000    0.758665844600    0.526451891845
}
set {
basis aug-cc-pvtz
reference uhf
e_convergence 10
scf_type pk
freeze_core true
}

set ccenergy {
e_convergence 10
r_convergence 10
}

e = energy('ccsd(t)')

print_out('Stephenergy {}'.format(e))

--------------------------------------------------------------------------

  Memory set to   3.725 GiB by Python driver.

*** tstart() called on c2-22.compute.lan
*** at Mon Mar  8 09:48:50 2021

   => Loading Basis Set <=

    Name: AUG-CC-PVTZ
    Role: ORBITAL
    Keyword: BASIS
    atoms 1   entry O          line   327 file /apps/gb/PSI4/1.3.2/share/psi4/basis/aug-cc-pvtz.gbs 
    atoms 2-3 entry H          line    36 file /apps/gb/PSI4/1.3.2/share/psi4/basis/aug-cc-pvtz.gbs 


         ---------------------------------------------------------
                                   SCF
               by Justin Turney, Rob Parrish, Andy Simmonett
                          and Daniel G. A. Smith
                              UHF Reference
                       12 Threads,   3814 MiB Core
         ---------------------------------------------------------

  ==> Geometry <==

    Molecular point group: c2v
    Full point group: C2v

    Geometry (in Angstrom), charge = 0, multiplicity = 1:

       Center              X                  Y                   Z               Mass       
    ------------   -----------------  -----------------  -----------------  -----------------
         O            0.000000000000     0.000000000000    -0.066342510415    15.994914619570
         H            0.000000000000    -0.758665844600     0.526451891845     1.007825032230
         H           -0.000000000000     0.758665844600     0.526451891845     1.007825032230

  Running in c2v symmetry.

  Rotational constants: A =     26.79900  B =     14.53049  C =      9.42191 [cm^-1]
  Rotational constants: A = 803413.78280  B = 435613.16631  C = 282461.67045 [MHz]
  Nuclear repulsion =    9.142748865009622

  Charge       = 0
  Multiplicity = 1
  Electrons    = 10
  Nalpha       = 5
  Nbeta        = 5

  ==> Algorithm <==

  SCF Algorithm Type is PK.
  DIIS enabled.
  MOM disabled.
  Fractional occupation disabled.
  Guess Type is SAD.
  Energy threshold   = 1.00e-10
  Density threshold  = 1.00e-08
  Integral threshold = 0.00e+00

  ==> Primary Basis <==

  Basis Set: AUG-CC-PVTZ
    Blend: AUG-CC-PVTZ
    Number of shells: 32
    Number of basis function: 92
    Number of Cartesian functions: 105
    Spherical Harmonics?: true
    Max angular momentum: 3

  ==> Pre-Iterations <==

   -------------------------------------------------------
    Irrep   Nso     Nmo     Nalpha   Nbeta   Ndocc  Nsocc
   -------------------------------------------------------
     A1        35      35       0       0       0       0
     A2        12      12       0       0       0       0
     B1        18      18       0       0       0       0
     B2        27      27       0       0       0       0
   -------------------------------------------------------
    Total      92      92       5       5       5       0
   -------------------------------------------------------

  ==> Integral Setup <==

  Using in-core PK algorithm.
   Calculation information:
      Number of atoms:                   3
      Number of AO shells:              32
      Number of primitives:             52
      Number of atomic orbitals:       105
      Number of basis functions:        92

      Integral cutoff                 1.00e-12
      Number of threads:                12

  Performing in-core PK
  Using 18305562 doubles for integral storage.
  We computed 240258 shell quartets total.
  Whereas there are 139656 unique shell quartets.
    72.04 percent of shell quartets recomputed by reordering.

  ==> DiskJK: Disk-Based J/K Matrices <==

    J tasked:                  Yes
    K tasked:                  Yes
    wK tasked:                  No
    Memory [MiB]:             2861
    Schwarz Cutoff:          1E-12

    OpenMP threads:             12

  Minimum eigenvalue in the overlap matrix is 3.9028094962E-04.
  Using Symmetric Orthogonalization.

  SCF Guess: Superposition of Atomic Densities via on-the-fly atomic UHF.

  ==> Iterations <==

                        Total Energy        Delta E     RMS |[F,P]|

   @UHF iter SAD:   -75.47218568050073   -7.54722e+01   0.00000e+00 
   @UHF iter   1:   -75.97562988168333   -5.03444e-01   9.51308e-03 DIIS
   @UHF iter   2:   -76.02802134357947   -5.23915e-02   6.51095e-03 DIIS
   @UHF iter   3:   -76.05973437854502   -3.17130e-02   4.42421e-04 DIIS
   @UHF iter   4:   -76.06012740037100   -3.93022e-04   1.06679e-04 DIIS
   @UHF iter   5:   -76.06015238178941   -2.49814e-05   2.42998e-05 DIIS
   @UHF iter   6:   -76.06015443481087   -2.05302e-06   5.31995e-06 DIIS
   @UHF iter   7:   -76.06015454278855   -1.07978e-07   9.53758e-07 DIIS
   @UHF iter   8:   -76.06015454583252   -3.04397e-09   1.60508e-07 DIIS
   @UHF iter   9:   -76.06015454589999   -6.74731e-11   3.95879e-08 DIIS
   @UHF iter  10:   -76.06015454590380   -3.80851e-12   5.82247e-09 DIIS
  Energy and wave function converged.


  ==> Post-Iterations <==

   @Spin Contamination Metric:  -4.440892099E-14
   @S^2 Expected:                0.000000000E+00
   @S^2 Observed:               -4.440892099E-14
   @S   Expected:                0.000000000E+00
   @S   Observed:                0.000000000E+00

    Orbital Energies [Eh]
    ---------------------

    Alpha Occupied:                                                       

       1A1   -20.568402     2A1    -1.351115     1B2    -0.713800  
       3A1    -0.584897     1B1    -0.510058  

    Alpha Virtual:                                                        

       4A1     0.029341     2B2     0.047695     5A1     0.135865  
       2B1     0.158874     6A1     0.175139     3B2     0.183114  
       4B2     0.226948     7A1     0.244869     1A2     0.265425  
       3B1     0.299814     8A1     0.310005     5B2     0.365747  
       9A1     0.437022     6B2     0.465746     7B2     0.599023  
      10A1     0.658437    11A1     0.707799     2A2     0.722760  
       4B1     0.731703    12A1     0.830152     5B1     0.846277  
      13A1     0.892518     8B2     0.912162     6B1     0.918264  
       3A2     0.922240     9B2     0.930728    14A1     0.960983  
      15A1     1.020205    10B2     1.042537     7B1     1.082232  
      11B2     1.107981     4A2     1.175897    16A1     1.181468  
      12B2     1.261561     5A2     1.509485    17A1     1.534442  
       8B1     1.581378    18A1     1.806190    13B2     1.820008  
      14B2     1.981613    19A1     2.115945     9B1     2.262496  
       6A2     2.315217    20A1     2.327166    21A1     2.417919  
      10B1     2.420317    15B2     2.443172    22A1     2.479787  
      16B2     2.678011    11B1     2.698254    23A1     2.769436  
      17B2     2.813902     7A2     2.883033    18B2     3.650025  
      24A1     3.737862     8A2     4.016702    12B1     4.080703  
      25A1     4.161088    19B2     4.245097    13B1     4.284731  
      26A1     4.373349     9A2     4.376233    14B1     4.403239  
      20B2     4.516380    27A1     4.722827    21B2     4.838509  
      10A2     5.143024    22B2     5.146022    23B2     5.245153  
      28A1     5.315913    15B1     5.516211    29A1     5.657591  
      30A1     6.175501    24B2     6.512835    16B1     6.708318  
      31A1     6.895356    17B1     7.129346    18B1     7.249605  
      25B2     7.292756    11A2     7.308169    32A1     7.328883  
      12A2     7.353418    33A1     7.525204    34A1     7.891860  
      26B2     7.917254    27B2     8.791837    35A1    15.659488  

    Beta Occupied:                                                        

       1A1   -20.568402     2A1    -1.351115     1B2    -0.713800  
       3A1    -0.584897     1B1    -0.510058  

    Beta Virtual:                                                         

       4A1     0.029341     2B2     0.047695     5A1     0.135865  
       2B1     0.158874     6A1     0.175139     3B2     0.183114  
       4B2     0.226948     7A1     0.244869     1A2     0.265425  
       3B1     0.299814     8A1     0.310005     5B2     0.365747  
       9A1     0.437022     6B2     0.465746     7B2     0.599023  
      10A1     0.658437    11A1     0.707799     2A2     0.722760  
       4B1     0.731703    12A1     0.830152     5B1     0.846277  
      13A1     0.892518     8B2     0.912162     6B1     0.918264  
       3A2     0.922240     9B2     0.930728    14A1     0.960983  
      15A1     1.020205    10B2     1.042537     7B1     1.082232  
      11B2     1.107981     4A2     1.175897    16A1     1.181468  
      12B2     1.261561     5A2     1.509485    17A1     1.534442  
       8B1     1.581378    18A1     1.806190    13B2     1.820008  
      14B2     1.981613    19A1     2.115945     9B1     2.262496  
       6A2     2.315217    20A1     2.327166    21A1     2.417919  
      10B1     2.420317    15B2     2.443172    22A1     2.479787  
      16B2     2.678011    11B1     2.698254    23A1     2.769436  
      17B2     2.813902     7A2     2.883033    18B2     3.650025  
      24A1     3.737862     8A2     4.016702    12B1     4.080703  
      25A1     4.161088    19B2     4.245097    13B1     4.284731  
      26A1     4.373349     9A2     4.376233    14B1     4.403239  
      20B2     4.516380    27A1     4.722827    21B2     4.838509  
      10A2     5.143024    22B2     5.146022    23B2     5.245153  
      28A1     5.315913    15B1     5.516211    29A1     5.657591  
      30A1     6.175501    24B2     6.512835    16B1     6.708318  
      31A1     6.895356    17B1     7.129346    18B1     7.249605  
      25B2     7.292756    11A2     7.308169    32A1     7.328883  
      12A2     7.353418    33A1     7.525204    34A1     7.891860  
      26B2     7.917254    27B2     8.791837    35A1    15.659488  

    Final Occupation by Irrep:
             A1    A2    B1    B2 
    DOCC [     3,    0,    1,    1 ]
    SOCC [     0,    0,    0,    0 ]

  @UHF Final Energy:   -76.06015454590380

   => Energetics <=

    Nuclear Repulsion Energy =              9.1427488650096222
    One-Electron Energy =                -122.9492624651755932
    Two-Electron Energy =                  37.7463590542621787
    Total Energy =                        -76.0601545459037993

  UHF NO Occupations:
  HONO-2 :    1 B1 2.0000000
  HONO-1 :    2 A1 2.0000000
  HONO-0 :    3 A1 2.0000000
  LUNO+0 :    2 B2 0.0000000
  LUNO+1 :    4 A1 0.0000000
  LUNO+2 :    5 A1 0.0000000
  LUNO+3 :    3 B2 0.0000000


Computation Completed


Properties will be evaluated at   0.000000,   0.000000,   0.000000 [a0]

Properties computed using the SCF density matrix

  Nuclear Dipole Moment: [e a0]
     X:     0.0000      Y:     0.0000      Z:     0.9867

  Electronic Dipole Moment: [e a0]
     X:     0.0000      Y:     0.0000      Z:    -0.2016

  Dipole Moment: [e a0]
     X:     0.0000      Y:     0.0000      Z:     0.7852     Total:     0.7852

  Dipole Moment: [D]
     X:     0.0000      Y:     0.0000      Z:     1.9957     Total:     1.9957


*** tstop() called on c2-22.compute.lan at Mon Mar  8 09:48:52 2021
Module time:
	user time   =      19.21 seconds =       0.32 minutes
	system time =       1.01 seconds =       0.02 minutes
	total time  =          2 seconds =       0.03 minutes
Total time:
	user time   =      19.21 seconds =       0.32 minutes
	system time =       1.01 seconds =       0.02 minutes
	total time  =          2 seconds =       0.03 minutes
 MINTS: Wrapper to libmints.
   by Justin Turney

   Calculation information:
      Number of threads:                12
      Number of atoms:                   3
      Number of AO shells:              32
      Number of SO shells:              23
      Number of primitives:             52
      Number of atomic orbitals:       105
      Number of basis functions:        92

      Number of irreps:                  4
      Integral cutoff                 0.00e+00
      Number of functions per irrep: [  35   12   18   27 ]

 OEINTS: Overlap, kinetic, potential, dipole, and quadrupole integrals
         stored in file 35.

      Computing two-electron integrals...done
      Computed 2235031 non-zero two-electron integrals.
        Stored in file 33.


*** tstart() called on c2-22.compute.lan
*** at Mon Mar  8 09:48:53 2021


	Wfn Parameters:
	--------------------
	Wavefunction         = CCSD_T
	Number of irreps     = 4
	Number of MOs        = 92
	Number of active MOs = 91
	AO-Basis             = NONE
	Semicanonical        = false
	Reference            = UHF
	Print Level          = 1

	IRREP	# MOs	# FZDC	# DOCC	# SOCC	# VIRT	# FZVR
	-----	-----	------	------	------	------	------
	 A1	   35	    1	    2	    0	    32	    0
	 A2	   12	    0	    0	    0	    12	    0
	 B1	   18	    0	    1	    0	    17	    0
	 B2	   27	    0	    1	    0	    26	    0
	Transforming integrals...
	IWL integrals will be deleted.
	(OO|OO)...
	Presorting SO-basis two-electron integrals.
	Sorting File: SO Ints (nn|nn) nbuckets = 1
	Transforming the one-electron integrals and constructing Fock matrices
	Starting AA/AB first half-transformation.
	Sorting AA/AB half-transformed integrals.
	Starting BB first half-transformation.
	Sorting BB half-transformed integrals.
	First half integral transformation complete.
	Starting AA second half-transformation.
	Starting AB second half-transformation.
	Starting BB second half-transformation.
	Two-electron integral transformation complete.
	(OO|OV)...
	Starting AA second half-transformation.
	Starting AB second half-transformation.
	Starting BB second half-transformation.
	Two-electron integral transformation complete.
	(OO|VV)...
	Starting AA second half-transformation.
	Starting AB second half-transformation.
	Starting BB second half-transformation.
	Two-electron integral transformation complete.
	(OV|OO)...
	Starting AA/AB first half-transformation.
	Sorting AA/AB half-transformed integrals.
	Starting BB first half-transformation.
	Sorting BB half-transformed integrals.
	First half integral transformation complete.
	Starting AA second half-transformation.
	Starting AB second half-transformation.
	Starting BB second half-transformation.
	Two-electron integral transformation complete.
	(OV|OV)...
	Starting AA second half-transformation.
	Starting AB second half-transformation.
	Starting BB second half-transformation.
	Two-electron integral transformation complete.
	(OV|VV)...
	Starting AA second half-transformation.
	Starting AB second half-transformation.
	Starting BB second half-transformation.
	Two-electron integral transformation complete.
	(VV|OO)...
	Starting AA/AB first half-transformation.
	Sorting AA/AB half-transformed integrals.
	Starting BB first half-transformation.
	Sorting BB half-transformed integrals.
	First half integral transformation complete.
	Starting AA second half-transformation.
	Starting AB second half-transformation.
	Starting BB second half-transformation.
	Two-electron integral transformation complete.
	(VV|OV)...
	Starting AA second half-transformation.
	Starting AB second half-transformation.
	Starting BB second half-transformation.
	Two-electron integral transformation complete.
	(VV|VV)...
	Starting AA second half-transformation.
	Starting AB second half-transformation.
	Starting BB second half-transformation.
	Two-electron integral transformation complete.
	Frozen core energy     =    -61.30396173268394

	Size of irrep 0 of <AB|CD> integrals:      1.047 (MW) /      8.372 (MB)
	Size of irrep 1 of <AB|CD> integrals:      0.682 (MW) /      5.458 (MB)
	Size of irrep 2 of <AB|CD> integrals:      0.733 (MW) /      5.862 (MB)
	Size of irrep 3 of <AB|CD> integrals:      1.073 (MW) /      8.586 (MB)
	Total:                                     3.535 (MW) /     28.279 (MB)

	Size of irrep 0 of <ab|cd> integrals:      1.047 (MW) /      8.372 (MB)
	Size of irrep 1 of <ab|cd> integrals:      0.682 (MW) /      5.458 (MB)
	Size of irrep 2 of <ab|cd> integrals:      0.733 (MW) /      5.862 (MB)
	Size of irrep 3 of <ab|cd> integrals:      1.073 (MW) /      8.586 (MB)
	Total:                                     3.535 (MW) /     28.279 (MB)

	Size of irrep 0 of <Ab|Cd> integrals:      4.550 (MW) /     36.398 (MB)
	Size of irrep 1 of <Ab|Cd> integrals:      2.729 (MW) /     21.833 (MB)
	Size of irrep 2 of <Ab|Cd> integrals:      2.931 (MW) /     23.448 (MB)
	Size of irrep 3 of <Ab|Cd> integrals:      4.293 (MW) /     34.345 (MB)
	Total:                                    14.503 (MW) /    116.023 (MB)

	Size of irrep 0 of <IA|BC> integrals:      0.228 (MW) /      1.826 (MB)
	Size of irrep 1 of <IA|BC> integrals:      0.111 (MW) /      0.885 (MB)
	Size of irrep 2 of <IA|BC> integrals:      0.134 (MW) /      1.068 (MB)
	Size of irrep 3 of <IA|BC> integrals:      0.199 (MW) /      1.591 (MB)
	Total:                                     0.671 (MW) /      5.371 (MB)

	Size of irrep 0 of <ia|bc> integrals:      0.228 (MW) /      1.826 (MB)
	Size of irrep 1 of <ia|bc> integrals:      0.111 (MW) /      0.885 (MB)
	Size of irrep 2 of <ia|bc> integrals:      0.134 (MW) /      1.068 (MB)
	Size of irrep 3 of <ia|bc> integrals:      0.199 (MW) /      1.591 (MB)
	Total:                                     0.671 (MW) /      5.371 (MB)

	Size of irrep 0 of <Ia|Bc> integrals:      0.228 (MW) /      1.826 (MB)
	Size of irrep 1 of <Ia|Bc> integrals:      0.111 (MW) /      0.885 (MB)
	Size of irrep 2 of <Ia|Bc> integrals:      0.134 (MW) /      1.068 (MB)
	Size of irrep 3 of <Ia|Bc> integrals:      0.199 (MW) /      1.591 (MB)
	Total:                                     0.671 (MW) /      5.371 (MB)

	Size of irrep 0 of <iA|bC> integrals:      0.228 (MW) /      1.826 (MB)
	Size of irrep 1 of <iA|bC> integrals:      0.111 (MW) /      0.885 (MB)
	Size of irrep 2 of <iA|bC> integrals:      0.134 (MW) /      1.068 (MB)
	Size of irrep 3 of <iA|bC> integrals:      0.199 (MW) /      1.591 (MB)
	Total:                                     0.671 (MW) /      5.371 (MB)

	Size of irrep 0 of tIjAb amplitudes:       0.013 (MW) /      0.102 (MB)
	Size of irrep 1 of tIjAb amplitudes:       0.003 (MW) /      0.026 (MB)
	Size of irrep 2 of tIjAb amplitudes:       0.007 (MW) /      0.055 (MB)
	Size of irrep 3 of tIjAb amplitudes:       0.008 (MW) /      0.066 (MB)
	Total:                                     0.031 (MW) /      0.250 (MB)

	Nuclear Rep. energy          =      9.14274886500962
	SCF energy                   =    -76.06015454590380
	One-electron energy          =    -41.47814363563937
	Two-electron (AA) energy     =      3.41715590545127
	Two-electron (BB) energy     =      3.41715590545127
	Two-electron (AB) energy     =     10.74489014650698
	Two-electron energy          =     17.57920195740952
	Reference energy             =    -76.06015454590417

*** tstop() called on c2-22.compute.lan at Mon Mar  8 09:49:15 2021
Module time:
	user time   =     179.03 seconds =       2.98 minutes
	system time =      11.52 seconds =       0.19 minutes
	total time  =         22 seconds =       0.37 minutes
Total time:
	user time   =     201.73 seconds =       3.36 minutes
	system time =      12.83 seconds =       0.21 minutes
	total time  =         25 seconds =       0.42 minutes
            **************************
            *                        *
            *        CCENERGY        *
            *                        *
            **************************

    Nuclear Rep. energy (wfn)     =    9.142748865009622
    SCF energy          (wfn)     =  -76.060154545903799
    Reference energy    (file100) =  -76.060154545904169

    Input parameters:
    -----------------
    Wave function   =     CCSD_T
    Reference wfn   =     UHF
    Brueckner       =     No
    Memory (Mbytes) =     4000.0
    Maxiter         =     50
    R_Convergence   =     1.0e-10
    E_Convergence   =     1.0e-10
    Restart         =     Yes
    DIIS            =     Yes
    AO Basis        =     NONE
    ABCD            =     NEW
    Cache Level     =     2
    Cache Type      =     LRU
    Print Level     =     1
    Num. of threads =     12
    # Amps to Print =     10
    Print MP2 Amps? =     No
    Analyze T2 Amps =     No
    Print Pair Ener =     No
    Local CC        =     No
    SCS-MP2         =     False
    SCSN-MP2        =     False
    SCS-CCSD        =     False

MP2 correlation energy -0.2688340147687484
                Solving CC Amplitude Equations
                ------------------------------
  Iter             Energy              RMS        T1Diag      D1Diag    New D1Diag    D2Diag
  ----     ---------------------    ---------   ----------  ----------  ----------   --------
     0        -0.268834014768748    0.000e+00    0.000000    0.000000    0.000000    0.000000
     1        -0.267287850339880    4.781e-02    0.012132    0.000000    0.000000    0.000000
     2        -0.272380545626642    1.318e-02    0.011906    0.000000    0.000000    0.000000
     3        -0.273605512848225    6.198e-03    0.013768    0.000000    0.000000    0.000000
     4        -0.273500646517381    1.248e-03    0.014092    0.000000    0.000000    0.000000
     5        -0.273484336948380    4.600e-04    0.014225    0.000000    0.000000    0.000000
     6        -0.273485218850624    1.147e-04    0.014255    0.000000    0.000000    0.000000
     7        -0.273483993005763    3.886e-05    0.014261    0.000000    0.000000    0.000000
     8        -0.273484036084903    1.065e-05    0.014263    0.000000    0.000000    0.000000
     9        -0.273484083062170    3.279e-06    0.014263    0.000000    0.000000    0.000000
    10        -0.273483961935435    1.326e-06    0.014263    0.000000    0.000000    0.000000
    11        -0.273483979928182    4.571e-07    0.014263    0.000000    0.000000    0.000000
    12        -0.273483974869028    1.706e-07    0.014263    0.000000    0.000000    0.000000
    13        -0.273483976662342    5.024e-08    0.014263    0.000000    0.000000    0.000000
    14        -0.273483977866064    1.331e-08    0.014263    0.000000    0.000000    0.000000
    15        -0.273483977917261    4.063e-09    0.014263    0.000000    0.000000    0.000000
    16        -0.273483977919856    1.238e-09    0.014263    0.000000    0.000000    0.000000
    17        -0.273483977928835    4.258e-10    0.014263    0.000000    0.000000    0.000000
    18        -0.273483977925854    1.103e-10    0.014263    0.000000    0.000000    0.000000
    19        -0.273483977925501    3.328e-11    0.014263    0.000000    0.000000    0.000000

    Iterations converged.


    Largest TIA Amplitudes:
              2  44        -0.0151709083
              2  45        -0.0130755474
              1   1         0.0085219938
              1   4        -0.0078008300
              3  73         0.0054561597
              2  54         0.0042812127
              3  69         0.0038146024
              2  47        -0.0036743349
              3  80         0.0036183703
              1  23         0.0034011607

    Largest Tia Amplitudes:
              2  44        -0.0151709083
              2  45        -0.0130755474
              1   1         0.0085219938
              1   4        -0.0078008300
              3  73         0.0054561597
              2  54         0.0042812127
              3  69         0.0038146024
              2  47        -0.0036743349
              3  80         0.0036183703
              1  23         0.0034011607

    Largest TIJAB Amplitudes:
      2   1  46   7        -0.0095682700
      3   1  66   6        -0.0093751862
      3   2  33   6        -0.0085526059
      3   1  65   9         0.0081124384
      2   1  49   9         0.0079492588
      3   2  65  49        -0.0076723123
      3   2  65  44        -0.0074352289
      3   1  66  13         0.0074159552
      2   1  48   9         0.0072518501
      3   2  65  45        -0.0072042593

    Largest Tijab Amplitudes:
      2   1  46   7        -0.0095682700
      3   1  66   6        -0.0093751862
      3   2  33   6        -0.0085526059
      3   1  65   9         0.0081124384
      2   1  49   9         0.0079492588
      3   2  65  49        -0.0076723123
      3   2  65  44        -0.0074352289
      3   1  66  13         0.0074159552
      2   1  48   9         0.0072518501
      3   2  65  45        -0.0072042593

    Largest TIjAb Amplitudes:
      3   3  65  65        -0.0217404045
      1   1   9   9        -0.0198880535
      2   2  49  49        -0.0157113642
      3   3  65  69        -0.0155926713
      3   3  69  65        -0.0155926713
      3   3  66  66        -0.0148687931
      1   1  66  66        -0.0137583260
      2   2  48  48        -0.0135145904
      3   3  69  69        -0.0131669013
      1   3   9  65         0.0128552476

    SCF energy       (wfn)                    =  -76.060154545903799
    Reference energy (file100)                =  -76.060154545904169

    Opposite-spin MP2 correlation energy      =   -0.203585082684331
    Same-spin MP2 correlation energy          =   -0.065248932084418
    MP2 correlation energy                    =   -0.268834014768748
      * MP2 total energy                      =  -76.328988560672911

    Opposite-spin CCSD correlation energy     =   -0.215576620729624
    Same-spin CCSD correlation energy         =   -0.057907357195877
    CCSD correlation energy                   =   -0.273483977925501
      * CCSD total energy                     =  -76.333638523829663

            **************************
            *                        *
            *        CCTRIPLES       *
            *                        *
            **************************


    Wave function   =    CCSD_T
    Reference wfn   =      UHF

    Nuclear Rep. energy (wfn)                =    9.142748865009622
    SCF energy          (wfn)                =  -76.060154545903799
    Reference energy    (file100)            =  -76.060154545904169
    CCSD energy         (file100)            =   -0.273483977925501
    Total CCSD energy   (file100)            =  -76.333638523829663

    Number of ijk index combinations:
    Spin Case AAA:                                   4
    Spin Case BBB:                                   4
    Spin Case AAB:                                  24
    Spin Case ABB:                                  24
    AAA (T) energy                             =   -0.000193707197184
    BBB (T) energy                             =   -0.000193707197184
    AAB (T) energy                             =   -0.004148352631672
    ABB (T) energy                             =   -0.004148352631672
    (T) energy                                   =   -0.008684119657711
      * CCSD(T) total energy                     =  -76.342322643487378

Stephenergy -76.34232264348738
    Psi4 stopped on: Monday, 08 March 2021 09:49AM
    Psi4 wall time for execution: 0:00:36.32

*** Psi4 exiting successfully. Buy a developer a beer!
