
    -----------------------------------------------------------------------
          Psi4: An Open-Source Ab Initio Electronic Structure Package
                               Psi4 1.3.2 release

                         Git: Rev {HEAD} ecbda83 


    R. M. Parrish, L. A. Burns, D. G. A. Smith, A. C. Simmonett,
    A. E. DePrince III, E. G. Hohenstein, U. Bozkaya, A. Yu. Sokolov,
    R. Di Remigio, R. M. Richard, J. F. Gonthier, A. M. James,
    H. R. McAlexander, A. Kumar, M. Saitow, X. Wang, B. P. Pritchard,
    P. Verma, H. F. Schaefer III, K. Patkowski, R. A. King, E. F. Valeev,
    F. A. Evangelista, J. M. Turney, T. D. Crawford, and C. D. Sherrill,
    J. Chem. Theory Comput. 13(7) pp 3185--3197 (2017).
    (doi: 10.1021/acs.jctc.7b00174)


                         Additional Contributions by
    P. Kraus, H. Kruse, M. H. Lechner, M. C. Schieber, R. A. Shaw,
    A. Alenaizan, R. Galvelis, Z. L. Glick, S. Lehtola, and J. P. Misiewicz

    -----------------------------------------------------------------------


    Psi4 started on: Wednesday, 10 March 2021 09:19AM

    Process ID: 174085
    Host:       c5-7.compute.lan
    PSIDATADIR: /apps/gb/PSI4/1.3.2/share/psi4
    Memory:     500.0 MiB
    Threads:    12
    
  ==> Input File <==

--------------------------------------------------------------------------
memory 4 GB

molecule  {
0 3
O    0.000000000000    0.000000000000   -1.334443217500
H    0.000000000000   -0.764019785700   -0.746913792381
H   -0.000000000000    0.764019785700   -0.746913792381
O    0.000000000000    0.000000000000    1.428567935860
}
set {
basis aug-cc-pvtz
reference uhf
e_convergence 10
scf_type pk
freeze_core true
}

set ccenergy {
e_convergence 10
r_convergence 10
}

e = energy('ccsd(t)')

print_out('Stephenergy {}'.format(e))

--------------------------------------------------------------------------

  Memory set to   3.725 GiB by Python driver.

*** tstart() called on c5-7.compute.lan
*** at Wed Mar 10 09:19:54 2021

   => Loading Basis Set <=

    Name: AUG-CC-PVTZ
    Role: ORBITAL
    Keyword: BASIS
    atoms 1, 4 entry O          line   327 file /apps/gb/PSI4/1.3.2/share/psi4/basis/aug-cc-pvtz.gbs 
    atoms 2-3  entry H          line    36 file /apps/gb/PSI4/1.3.2/share/psi4/basis/aug-cc-pvtz.gbs 


         ---------------------------------------------------------
                                   SCF
               by Justin Turney, Rob Parrish, Andy Simmonett
                          and Daniel G. A. Smith
                              UHF Reference
                       12 Threads,   3814 MiB Core
         ---------------------------------------------------------

  ==> Geometry <==

    Molecular point group: c2v
    Full point group: C2v

    Geometry (in Angstrom), charge = 0, multiplicity = 3:

       Center              X                  Y                   Z               Mass       
    ------------   -----------------  -----------------  -----------------  -----------------
         O           -0.000000000000     0.000000000000    -1.334443217500    15.994914619570
         H            0.000000000000    -0.764019785700    -0.746913792381     1.007825032230
         H           -0.000000000000     0.764019785700    -0.746913792381     1.007825032230
         O           -0.000000000000     0.000000000000     1.428567935860    15.994914619570

  Running in c2v symmetry.

  Rotational constants: A =     14.32756  B =      0.27081  C =      0.26578 [cm^-1]
  Rotational constants: A = 429529.35655  B =   8118.56724  C =   7967.96414 [MHz]
  Nuclear repulsion =   25.060594926805905

  Charge       = 0
  Multiplicity = 3
  Electrons    = 18
  Nalpha       = 10
  Nbeta        = 8

  ==> Algorithm <==

  SCF Algorithm Type is PK.
  DIIS enabled.
  MOM disabled.
  Fractional occupation disabled.
  Guess Type is SAD.
  Energy threshold   = 1.00e-10
  Density threshold  = 1.00e-08
  Integral threshold = 0.00e+00

  ==> Primary Basis <==

  Basis Set: AUG-CC-PVTZ
    Blend: AUG-CC-PVTZ
    Number of shells: 46
    Number of basis function: 138
    Number of Cartesian functions: 160
    Spherical Harmonics?: true
    Max angular momentum: 3

  ==> Pre-Iterations <==

   -------------------------------------------------------
    Irrep   Nso     Nmo     Nalpha   Nbeta   Ndocc  Nsocc
   -------------------------------------------------------
     A1        54      54       0       0       0       0
     A2        17      17       0       0       0       0
     B1        29      29       0       0       0       0
     B2        38      38       0       0       0       0
   -------------------------------------------------------
    Total     138     138      10       8       8       2
   -------------------------------------------------------

  ==> Integral Setup <==

  Using in-core PK algorithm.
   Calculation information:
      Number of atoms:                   4
      Number of AO shells:              46
      Number of primitives:             82
      Number of atomic orbitals:       160
      Number of basis functions:       138

      Integral cutoff                 1.00e-12
      Number of threads:                12

  Performing in-core PK
  Using 91996872 doubles for integral storage.
  We computed 940522 shell quartets total.
  Whereas there are 584821 unique shell quartets.
    60.82 percent of shell quartets recomputed by reordering.

  ==> DiskJK: Disk-Based J/K Matrices <==

    J tasked:                  Yes
    K tasked:                  Yes
    wK tasked:                  No
    Memory [MiB]:             2861
    Schwarz Cutoff:          1E-12

    OpenMP threads:             12

  Minimum eigenvalue in the overlap matrix is 3.4871661265E-04.
  Using Symmetric Orthogonalization.

  SCF Guess: Superposition of Atomic Densities via on-the-fly atomic UHF.

  ==> Iterations <==

                        Total Energy        Delta E     RMS |[F,P]|

   @UHF iter SAD:  -149.42075309386891   -1.49421e+02   0.00000e+00 
   @UHF iter   1:  -150.75338382656184   -1.33263e+00   7.09128e-03 DIIS
   @UHF iter   2:  -150.83018967563535   -7.68058e-02   4.61292e-03 DIIS
   @UHF iter   3:  -150.86654660524090   -3.63569e-02   5.52146e-04 DIIS
   @UHF iter   4:  -150.86774733547585   -1.20073e-03   1.77575e-04 DIIS
   @UHF iter   5:  -150.86786969238028   -1.22357e-04   6.83967e-05 DIIS
   @UHF iter   6:  -150.86790056039865   -3.08680e-05   1.92611e-05 DIIS
   @UHF iter   7:  -150.86790318202344   -2.62162e-06   4.63467e-06 DIIS
   @UHF iter   8:  -150.86790334957578   -1.67552e-07   1.44721e-06 DIIS
   @UHF iter   9:  -150.86790336700824   -1.74325e-08   5.47151e-07 DIIS
   @UHF iter  10:  -150.86790336990208   -2.89384e-09   2.44691e-07 DIIS
   @UHF iter  11:  -150.86790337060057   -6.98492e-10   6.58834e-08 DIIS
   @UHF iter  12:  -150.86790337064164   -4.10694e-11   1.01085e-08 DIIS
   @UHF iter  13:  -150.86790337064247   -8.24230e-13   4.19211e-09 DIIS
  Energy and wave function converged.


  ==> Post-Iterations <==

   @Spin Contamination Metric:   8.761330774E-03
   @S^2 Expected:                2.000000000E+00
   @S^2 Observed:                2.008761331E+00
   @S   Expected:                1.000000000E+00
   @S   Observed:                1.000000000E+00

    Orbital Energies [Eh]
    ---------------------

    Alpha Occupied:                                                       

       1A1   -20.732994     2A1   -20.556119     3A1    -1.445279  
       4A1    -1.339829     1B2    -0.737671     1B1    -0.734917  
       2B2    -0.703714     5A1    -0.648181     6A1    -0.564099  
       2B1    -0.499682  

    Alpha Virtual:                                                        

       7A1     0.036099     3B2     0.048387     8A1     0.127568  
       3B1     0.130886     9A1     0.155195     4B2     0.160342  
       5B2     0.186211     4B1     0.188963    10A1     0.193251  
       1A2     0.263491    11A1     0.265222     6B2     0.270528  
      12A1     0.282069     5B1     0.334865     7B2     0.389471  
      13A1     0.401157    14A1     0.452552     8B2     0.475174  
       2A2     0.620707     9B2     0.637188    15A1     0.641225  
       6B1     0.658482    16A1     0.671451    17A1     0.711716  
       3A2     0.727716    10B2     0.758759    18A1     0.762203  
       7B1     0.791363     8B1     0.829561    11B2     0.854971  
      19A1     0.879506     9B1     0.922899    12B2     0.941974  
       4A2     0.967085    20A1     0.977440    10B1     1.020065  
      21A1     1.025446    13B2     1.051379    14B2     1.087611  
      22A1     1.096416    23A1     1.163021     5A2     1.202688  
      11B1     1.203459    24A1     1.223216    15B2     1.260607  
      16B2     1.397921     6A2     1.513326    25A1     1.541467  
      12B1     1.593924    17B2     1.788612    26A1     1.792338  
      27A1     1.842478    18B2     1.952328    13B1     1.977884  
      28A1     2.025512     7A2     2.025818    19B2     2.038079  
      29A1     2.053274    14B1     2.053740    30A1     2.131572  
       8A2     2.132001    20B2     2.163764    15B1     2.181147  
      31A1     2.219324    32A1     2.363594     9A2     2.366992  
      16B1     2.392254    21B2     2.397660    33A1     2.453607  
      34A1     2.518724    17B1     2.534223    22B2     2.537740  
      35A1     2.690199    18B1     2.737119    23B2     2.738386  
      36A1     2.887067    10A2     2.889945    24B2     2.920383  
      25B2     3.675496    37A1     3.785492    11A2     4.041365  
      19B1     4.065868    20B1     4.118307    26B2     4.159476  
      38A1     4.245614    27B2     4.271992    21B1     4.310751  
      12A2     4.389146    39A1     4.394981    22B1     4.437777  
      28B2     4.602852    40A1     4.603471    41A1     4.751259  
      29B2     4.874931    30B2     5.150914    13A2     5.156380  
      31B2     5.283035    42A1     5.365396    23B1     5.517688  
      43A1     5.697451    44A1     6.207962    24B1     6.314575  
      32B2     6.320727    14A2     6.419079    45A1     6.441306  
      25B1     6.465419    33B2     6.530672    46A1     6.573206  
      34B2     6.648779    26B1     6.778499    15A2     6.826850  
      47A1     6.829100    27B1     6.941688    48A1     6.950165  
      35B2     6.996955    49A1     7.047758    28B1     7.166130  
      29B1     7.267562    16A2     7.313718    17A2     7.368184  
      50A1     7.377648    36B2     7.382615    51A1     7.578057  
      37B2     7.939493    52A1     7.965870    38B2     8.796561  
      53A1     9.337261    54A1    15.727381  

    Beta Occupied:                                                        

       1A1   -20.654805     2A1   -20.556200     3A1    -1.340957  
       4A1    -1.103569     1B2    -0.705424     5A1    -0.594221  
       6A1    -0.530054     1B1    -0.499303  

    Beta Virtual:                                                         

       2B2     0.031025     7A1     0.037425     2B1     0.046346  
       3B2     0.068741     8A1     0.132217     9A1     0.157728  
       3B1     0.161588     4B2     0.177627    10A1     0.193962  
       4B1     0.226346     5B2     0.229089     1A2     0.264434  
      11A1     0.268915     6B2     0.271562    12A1     0.290576  
       5B1     0.339446     7B2     0.402304    13A1     0.405276  
      14A1     0.454668     8B2     0.475529     9B2     0.637568  
       2A2     0.652926     6B1     0.667793    15A1     0.667955  
      16A1     0.682546    17A1     0.713195     3A2     0.728711  
      18A1     0.775955    10B2     0.778042     7B1     0.801591  
      19A1     0.882965     8B1     0.917021    11B2     0.932849  
       9B1     0.937635    12B2     0.961899     4A2     0.970625  
      20A1     0.979162    21A1     1.029354    10B1     1.052551  
      13B2     1.056607    22A1     1.103431    14B2     1.115272  
      23A1     1.199961     5A2     1.203849    11B1     1.221134  
      24A1     1.227768    15B2     1.261167    16B2     1.418126  
       6A2     1.513921    25A1     1.553374    12B1     1.594697  
      17B2     1.790732    26A1     1.809027    27A1     1.860765  
      18B2     1.964847    13B1     2.013150    19B2     2.063076  
      28A1     2.070540    14B1     2.090117    29A1     2.112256  
       7A2     2.123854     8A2     2.201045    30A1     2.215853  
      15B1     2.228535    20B2     2.231358    31A1     2.244510  
       9A2     2.375107    32A1     2.388679    16B1     2.406342  
      21B2     2.418025    33A1     2.457418    34A1     2.523800  
      17B1     2.537062    22B2     2.545156    35A1     2.695701  
      18B1     2.737386    23B2     2.741212    36A1     2.888814  
      10A2     2.890022    24B2     2.921004    25B2     3.676723  
      37A1     3.787790    11A2     4.041488    19B1     4.115193  
      20B1     4.229842    38A1     4.252590    26B2     4.261778  
      21B1     4.318191    27B2     4.329854    12A2     4.389196  
      39A1     4.407044    22B1     4.441115    28B2     4.608641  
      40A1     4.633078    41A1     4.751535    29B2     4.876329  
      30B2     5.151391    13A2     5.156524    31B2     5.283387  
      42A1     5.365795    23B1     5.517760    43A1     5.698063  
      44A1     6.213395    24B1     6.422455    32B2     6.428543  
      14A2     6.495361    45A1     6.513752    25B1     6.521326  
      33B2     6.535961    46A1     6.616642    34B2     6.699519  
      26B1     6.779551    47A1     6.948778    15A2     7.014298  
      48A1     7.021067    27B1     7.049685    35B2     7.104134  
      49A1     7.127533    28B1     7.168496    29B1     7.267777  
      16A2     7.313914    17A2     7.368529    50A1     7.378004  
      36B2     7.382769    51A1     7.579717    37B2     7.939678  
      52A1     7.966716    38B2     8.796349    53A1     9.413265  
      54A1    15.727384  

    Final Occupation by Irrep:
             A1    A2    B1    B2 
    DOCC [     6,    0,    1,    1 ]
    SOCC [     0,    0,    1,    1 ]

  @UHF Final Energy:  -150.86790337064247

   => Energetics <=

    Nuclear Repulsion Energy =             25.0605949268059049
    One-Electron Energy =                -257.9099795740475543
    Two-Electron Energy =                  81.9814812765991974
    Total Energy =                       -150.8679033706424661

  UHF NO Occupations:
  HONO-2 :    6 A1 1.9971195
  HONO-1 :    2 B1 1.0000000
  HONO-0 :    2 B2 1.0000000
  LUNO+0 :    7 A1 0.0028805
  LUNO+1 :    8 A1 0.0014913
  LUNO+2 :    9 A1 0.0000052
  LUNO+3 :    3 B1 0.0000046


Computation Completed


Properties will be evaluated at   0.000000,   0.000000,   0.000000 [a0]

Properties computed using the SCF density matrix

  Nuclear Dipole Moment: [e a0]
     X:    -0.0000      Y:     0.0000      Z:    -1.4000

  Electronic Dipole Moment: [e a0]
     X:     0.0000      Y:     0.0000      Z:     2.2547

  Dipole Moment: [e a0]
     X:    -0.0000      Y:     0.0000      Z:     0.8547     Total:     0.8547

  Dipole Moment: [D]
     X:    -0.0000      Y:     0.0000      Z:     2.1725     Total:     2.1725


*** tstop() called on c5-7.compute.lan at Wed Mar 10 09:20:01 2021
Module time:
	user time   =      31.71 seconds =       0.53 minutes
	system time =       1.31 seconds =       0.02 minutes
	total time  =          7 seconds =       0.12 minutes
Total time:
	user time   =      31.71 seconds =       0.53 minutes
	system time =       1.31 seconds =       0.02 minutes
	total time  =          7 seconds =       0.12 minutes
 MINTS: Wrapper to libmints.
   by Justin Turney

   Calculation information:
      Number of threads:                12
      Number of atoms:                   4
      Number of AO shells:              46
      Number of SO shells:              37
      Number of primitives:             82
      Number of atomic orbitals:       160
      Number of basis functions:       138

      Number of irreps:                  4
      Integral cutoff                 0.00e+00
      Number of functions per irrep: [  54   17   29   38 ]

 OEINTS: Overlap, kinetic, potential, dipole, and quadrupole integrals
         stored in file 35.

      Computing two-electron integrals...done
      Computed 11523092 non-zero two-electron integrals.
        Stored in file 33.


*** tstart() called on c5-7.compute.lan
*** at Wed Mar 10 09:20:04 2021


	Wfn Parameters:
	--------------------
	Wavefunction         = CCSD_T
	Number of irreps     = 4
	Number of MOs        = 138
	Number of active MOs = 136
	AO-Basis             = NONE
	Semicanonical        = false
	Reference            = UHF
	Print Level          = 1

	IRREP	# MOs	# FZDC	# DOCC	# SOCC	# VIRT	# FZVR
	-----	-----	------	------	------	------	------
	 A1	   54	    2	    4	    0	    48	    0
	 A2	   17	    0	    0	    0	    17	    0
	 B1	   29	    0	    1	    1	    27	    0
	 B2	   38	    0	    1	    1	    36	    0
	Transforming integrals...
	IWL integrals will be deleted.
	(OO|OO)...
	Presorting SO-basis two-electron integrals.
	Sorting File: SO Ints (nn|nn) nbuckets = 1
	Transforming the one-electron integrals and constructing Fock matrices
	Starting AA/AB first half-transformation.
	Sorting AA/AB half-transformed integrals.
	Starting BB first half-transformation.
	Sorting BB half-transformed integrals.
	First half integral transformation complete.
	Starting AA second half-transformation.
	Starting AB second half-transformation.
	Starting BB second half-transformation.
	Two-electron integral transformation complete.
	(OO|OV)...
	Starting AA second half-transformation.
	Starting AB second half-transformation.
	Starting BB second half-transformation.
	Two-electron integral transformation complete.
	(OO|VV)...
	Starting AA second half-transformation.
	Starting AB second half-transformation.
	Starting BB second half-transformation.
	Two-electron integral transformation complete.
	(OV|OO)...
	Starting AA/AB first half-transformation.
	Sorting AA/AB half-transformed integrals.
	Starting BB first half-transformation.
	Sorting BB half-transformed integrals.
	First half integral transformation complete.
	Starting AA second half-transformation.
	Starting AB second half-transformation.
	Starting BB second half-transformation.
	Two-electron integral transformation complete.
	(OV|OV)...
	Starting AA second half-transformation.
	Starting AB second half-transformation.
	Starting BB second half-transformation.
	Two-electron integral transformation complete.
	(OV|VV)...
	Starting AA second half-transformation.
	Starting AB second half-transformation.
	Starting BB second half-transformation.
	Two-electron integral transformation complete.
	(VV|OO)...
	Starting AA/AB first half-transformation.
	Sorting AA/AB half-transformed integrals.
	Starting BB first half-transformation.
	Sorting BB half-transformed integrals.
	First half integral transformation complete.
	Starting AA second half-transformation.
	Starting AB second half-transformation.
	Starting BB second half-transformation.
	Two-electron integral transformation complete.
	(VV|OV)...
	Starting AA second half-transformation.
	Starting AB second half-transformation.
	Starting BB second half-transformation.
	Two-electron integral transformation complete.
	(VV|VV)...
	Starting AA second half-transformation.
	Starting AB second half-transformation.
	Starting BB second half-transformation.
	Two-electron integral transformation complete.
	Frozen core energy     =   -126.68786433734851

	Size of irrep 0 of <AB|CD> integrals:      5.040 (MW) /     40.320 (MB)
	Size of irrep 1 of <AB|CD> integrals:      3.197 (MW) /     25.576 (MB)
	Size of irrep 2 of <AB|CD> integrals:      3.640 (MW) /     29.124 (MB)
	Size of irrep 3 of <AB|CD> integrals:      4.783 (MW) /     38.264 (MB)
	Total:                                    16.660 (MW) /    133.283 (MB)

	Size of irrep 0 of <ab|cd> integrals:      5.327 (MW) /     42.615 (MB)
	Size of irrep 1 of <ab|cd> integrals:      3.430 (MW) /     27.439 (MB)
	Size of irrep 2 of <ab|cd> integrals:      3.893 (MW) /     31.142 (MB)
	Size of irrep 3 of <ab|cd> integrals:      5.072 (MW) /     40.572 (MB)
	Total:                                    17.721 (MW) /    141.768 (MB)

	Size of irrep 0 of <Ab|Cd> integrals:     21.912 (MW) /    175.294 (MB)
	Size of irrep 1 of <Ab|Cd> integrals:     13.242 (MW) /    105.939 (MB)
	Size of irrep 2 of <Ab|Cd> integrals:     15.062 (MW) /    120.497 (MB)
	Size of irrep 3 of <Ab|Cd> integrals:     19.705 (MW) /    157.638 (MB)
	Total:                                    69.921 (MW) /    559.368 (MB)

	Size of irrep 0 of <IA|BC> integrals:      1.469 (MW) /     11.748 (MB)
	Size of irrep 1 of <IA|BC> integrals:      0.694 (MW) /      5.550 (MB)
	Size of irrep 2 of <IA|BC> integrals:      0.908 (MW) /      7.266 (MB)
	Size of irrep 3 of <IA|BC> integrals:      1.198 (MW) /      9.588 (MB)
	Total:                                     4.269 (MW) /     34.152 (MB)

	Size of irrep 0 of <ia|bc> integrals:      1.220 (MW) /      9.758 (MB)
	Size of irrep 1 of <ia|bc> integrals:      0.493 (MW) /      3.941 (MB)
	Size of irrep 2 of <ia|bc> integrals:      0.698 (MW) /      5.588 (MB)
	Size of irrep 3 of <ia|bc> integrals:      0.959 (MW) /      7.675 (MB)
	Total:                                     3.370 (MW) /     26.961 (MB)

	Size of irrep 0 of <Ia|Bc> integrals:      1.507 (MW) /     12.058 (MB)
	Size of irrep 1 of <Ia|Bc> integrals:      0.721 (MW) /      5.764 (MB)
	Size of irrep 2 of <Ia|Bc> integrals:      0.939 (MW) /      7.514 (MB)
	Size of irrep 3 of <Ia|Bc> integrals:      1.234 (MW) /      9.872 (MB)
	Total:                                     4.401 (MW) /     35.208 (MB)

	Size of irrep 0 of <iA|bC> integrals:      1.194 (MW) /      9.549 (MB)
	Size of irrep 1 of <iA|bC> integrals:      0.477 (MW) /      3.814 (MB)
	Size of irrep 2 of <iA|bC> integrals:      0.671 (MW) /      5.371 (MB)
	Size of irrep 3 of <iA|bC> integrals:      0.928 (MW) /      7.422 (MB)
	Total:                                     3.270 (MW) /     26.156 (MB)

	Size of irrep 0 of tIjAb amplitudes:       0.094 (MW) /      0.749 (MB)
	Size of irrep 1 of tIjAb amplitudes:       0.015 (MW) /      0.116 (MB)
	Size of irrep 2 of tIjAb amplitudes:       0.047 (MW) /      0.373 (MB)
	Size of irrep 3 of tIjAb amplitudes:       0.053 (MW) /      0.426 (MB)
	Total:                                     0.208 (MW) /      1.664 (MB)

	Nuclear Rep. energy          =     25.06059492680590
	SCF energy                   =   -150.86790337064247
	One-electron energy          =    -87.03436780521267
	Two-electron (AA) energy     =     10.56533950010728
	Two-electron (BB) energy     =      5.61502052216256
	Two-electron (AB) energy     =     21.61337382284184
	Two-electron energy          =     37.79373384511168
	Reference energy             =   -150.86790337064360

*** tstop() called on c5-7.compute.lan at Wed Mar 10 09:20:27 2021
Module time:
	user time   =      56.90 seconds =       0.95 minutes
	system time =       9.79 seconds =       0.16 minutes
	total time  =         23 seconds =       0.38 minutes
Total time:
	user time   =      92.28 seconds =       1.54 minutes
	system time =      11.44 seconds =       0.19 minutes
	total time  =         33 seconds =       0.55 minutes
            **************************
            *                        *
            *        CCENERGY        *
            *                        *
            **************************

    Nuclear Rep. energy (wfn)     =   25.060594926805905
    SCF energy          (wfn)     = -150.867903370642466
    Reference energy    (file100) = -150.867903370643603

    Input parameters:
    -----------------
    Wave function   =     CCSD_T
    Reference wfn   =     UHF
    Brueckner       =     No
    Memory (Mbytes) =     4000.0
    Maxiter         =     50
    R_Convergence   =     1.0e-10
    E_Convergence   =     1.0e-10
    Restart         =     Yes
    DIIS            =     Yes
    AO Basis        =     NONE
    ABCD            =     NEW
    Cache Level     =     2
    Cache Type      =     LRU
    Print Level     =     1
    Num. of threads =     12
    # Amps to Print =     10
    Print MP2 Amps? =     No
    Analyze T2 Amps =     No
    Print Pair Ener =     No
    Local CC        =     No
    SCS-MP2         =     False
    SCSN-MP2        =     False
    SCS-CCSD        =     False

MP2 correlation energy -0.4172268343355420
                Solving CC Amplitude Equations
                ------------------------------
  Iter             Energy              RMS        T1Diag      D1Diag    New D1Diag    D2Diag
  ----     ---------------------    ---------   ----------  ----------  ----------   --------
     0        -0.417226834335542    0.000e+00    0.000000    0.000000    0.000000    0.000000
     1        -0.428101316285676    5.705e-02    0.010644    0.000000    0.000000    0.000000
     2        -0.436262407802084    1.691e-02    0.011229    0.000000    0.000000    0.000000
     3        -0.438348114245736    8.972e-03    0.013212    0.000000    0.000000    0.000000
     4        -0.438229702343730    2.725e-03    0.013684    0.000000    0.000000    0.000000
     5        -0.438204688489496    1.725e-03    0.013930    0.000000    0.000000    0.000000
     6        -0.438241333961446    7.295e-04    0.014035    0.000000    0.000000    0.000000
     7        -0.438246946661650    4.577e-04    0.014072    0.000000    0.000000    0.000000
     8        -0.438246745438307    1.846e-04    0.014088    0.000000    0.000000    0.000000
     9        -0.438248270020780    9.550e-05    0.014101    0.000000    0.000000    0.000000
    10        -0.438245389476273    4.096e-05    0.014107    0.000000    0.000000    0.000000
    11        -0.438245909405737    1.746e-05    0.014110    0.000000    0.000000    0.000000
    12        -0.438245894674367    6.601e-06    0.014111    0.000000    0.000000    0.000000
    13        -0.438245950115053    2.387e-06    0.014111    0.000000    0.000000    0.000000
    14        -0.438246052653430    9.567e-07    0.014111    0.000000    0.000000    0.000000
    15        -0.438246061417819    3.271e-07    0.014111    0.000000    0.000000    0.000000
    16        -0.438246062803304    1.686e-07    0.014111    0.000000    0.000000    0.000000
    17        -0.438246064285604    6.719e-08    0.014111    0.000000    0.000000    0.000000
    18        -0.438246062657155    3.285e-08    0.014111    0.000000    0.000000    0.000000
    19        -0.438246062324436    1.047e-08    0.014111    0.000000    0.000000    0.000000
    20        -0.438246062437590    4.988e-09    0.014111    0.000000    0.000000    0.000000
    21        -0.438246062420015    2.137e-09    0.014111    0.000000    0.000000    0.000000
    22        -0.438246062419234    9.672e-10    0.014111    0.000000    0.000000    0.000000
    23        -0.438246062422618    4.347e-10    0.014111    0.000000    0.000000    0.000000
    24        -0.438246062412838    1.777e-10    0.014111    0.000000    0.000000    0.000000
    25        -0.438246062410216    7.643e-11    0.014111    0.000000    0.000000    0.000000

    Iterations converged.


    Largest TIA Amplitudes:
              5  67        -0.0144145388
              5  65        -0.0128101565
              2   6        -0.0089921100
              2   2         0.0084589903
              4  65        -0.0083958521
              6  93        -0.0079184936
              5  66        -0.0076458059
              3   1         0.0067387978
              6  94        -0.0054383487
              4  66         0.0051831290

    Largest Tia Amplitudes:
              4  65        -0.0197406903
              4  68        -0.0136233085
              2   6        -0.0095503766
              4  66        -0.0090356088
              4  67        -0.0083977886
              2   2         0.0078125348
              3   1         0.0066705316
              1  25        -0.0047719231
              1  11         0.0045147439
              5 109         0.0044732523

    Largest TIJAB Amplitudes:
      6   4 100  70         0.0136268047
      6   4  54  21         0.0117971390
      4   2  70  16         0.0091341096
      4   2  70  11         0.0090560653
      6   2 100  16        -0.0086237786
      7   3  98   9        -0.0085035440
      6   2 100  11        -0.0083341354
      7   5  50  10        -0.0082707161
      6   4 115  81        -0.0076815845
      7   5  97  67        -0.0074709070

    Largest Tijab Amplitudes:
      5   4  50  10        -0.0084742785
      5   4  99  68        -0.0074894527
      5   4  99  73        -0.0072413977
      5   4  53  10        -0.0072393266
      5   2 100   8        -0.0067406822
      5   4  99  71        -0.0066033140
      5   2 100   9         0.0062213993
      5   4 104  73        -0.0060424355
      3   1  78  65        -0.0058721957
      5   4 104  68        -0.0056181224

    Largest TIjAb Amplitudes:
      6   1  54  65        -0.0177853771
      4   1  21  65         0.0170636442
      7   5  97  99        -0.0169035436
      7   5  98 100        -0.0161151404
      5   4  72  73        -0.0154577405
      6   1  49  65         0.0140052460
      4   1  54  94        -0.0139119090
      2   3  11  11         0.0138931677
      4   1  54  96         0.0136816795
      4   1  54  93        -0.0135163503

    SCF energy       (wfn)                    = -150.867903370642466
    Reference energy (file100)                = -150.867903370643603

    Opposite-spin MP2 correlation energy      =   -0.314963644796340
    Same-spin MP2 correlation energy          =   -0.102263189539202
    MP2 correlation energy                    =   -0.417226834335542
      * MP2 total energy                      = -151.285130204979140

    Opposite-spin CCSD correlation energy     =   -0.342591275552680
    Same-spin CCSD correlation energy         =   -0.095654786857536
    CCSD correlation energy                   =   -0.438246062410216
      * CCSD total energy                     = -151.306149433053832

            **************************
            *                        *
            *        CCTRIPLES       *
            *                        *
            **************************


    Wave function   =    CCSD_T
    Reference wfn   =      UHF

    Nuclear Rep. energy (wfn)                =   25.060594926805905
    SCF energy          (wfn)                = -150.867903370642466
    Reference energy    (file100)            = -150.867903370643603
    CCSD energy         (file100)            =   -0.438246062410216
    Total CCSD energy   (file100)            = -151.306149433053832

    Number of ijk index combinations:
    Spin Case AAA:                                  56
    Spin Case BBB:                                  20
    Spin Case AAB:                                 168
    Spin Case ABB:                                 120
    AAA (T) energy                             =   -0.000409288328560
    BBB (T) energy                             =   -0.000208434545503
    AAB (T) energy                             =   -0.006785369510773
    ABB (T) energy                             =   -0.005058216673710
    (T) energy                                   =   -0.012461309058546
      * CCSD(T) total energy                     = -151.318610742112355

Stephenergy -151.31861074211236
    Psi4 stopped on: Wednesday, 10 March 2021 09:21AM
    Psi4 wall time for execution: 0:01:44.06

*** Psi4 exiting successfully. Buy a developer a beer!
