
    -----------------------------------------------------------------------
          Psi4: An Open-Source Ab Initio Electronic Structure Package
                               Psi4 1.3.2 release

                         Git: Rev {HEAD} ecbda83 


    R. M. Parrish, L. A. Burns, D. G. A. Smith, A. C. Simmonett,
    A. E. DePrince III, E. G. Hohenstein, U. Bozkaya, A. Yu. Sokolov,
    R. Di Remigio, R. M. Richard, J. F. Gonthier, A. M. James,
    H. R. McAlexander, A. Kumar, M. Saitow, X. Wang, B. P. Pritchard,
    P. Verma, H. F. Schaefer III, K. Patkowski, R. A. King, E. F. Valeev,
    F. A. Evangelista, J. M. Turney, T. D. Crawford, and C. D. Sherrill,
    J. Chem. Theory Comput. 13(7) pp 3185--3197 (2017).
    (doi: 10.1021/acs.jctc.7b00174)


                         Additional Contributions by
    P. Kraus, H. Kruse, M. H. Lechner, M. C. Schieber, R. A. Shaw,
    A. Alenaizan, R. Galvelis, Z. L. Glick, S. Lehtola, and J. P. Misiewicz

    -----------------------------------------------------------------------


    Psi4 started on: Monday, 08 March 2021 09:48AM

    Process ID: 79872
    Host:       d3-15.compute.lan
    PSIDATADIR: /apps/gb/PSI4/1.3.2/share/psi4
    Memory:     500.0 MiB
    Threads:    12
    
  ==> Input File <==

--------------------------------------------------------------------------
memory 4 GB

molecule  {
0 1
O    0.000000000000    0.000000000000   -0.066121188674
H    0.000000000000   -0.756802197968    0.524695623526
H   -0.000000000000    0.756802197968    0.524695623526
}
set {
basis aug-cc-pvtz
reference uhf
e_convergence 10
scf_type pk
freeze_core true
}

set ccenergy {
e_convergence 10
r_convergence 10
}

e = energy('ccsd(t)')

print_out('Stephenergy {}'.format(e))

--------------------------------------------------------------------------

  Memory set to   3.725 GiB by Python driver.

*** tstart() called on d3-15.compute.lan
*** at Mon Mar  8 09:48:50 2021

   => Loading Basis Set <=

    Name: AUG-CC-PVTZ
    Role: ORBITAL
    Keyword: BASIS
    atoms 1   entry O          line   327 file /apps/gb/PSI4/1.3.2/share/psi4/basis/aug-cc-pvtz.gbs 
    atoms 2-3 entry H          line    36 file /apps/gb/PSI4/1.3.2/share/psi4/basis/aug-cc-pvtz.gbs 


         ---------------------------------------------------------
                                   SCF
               by Justin Turney, Rob Parrish, Andy Simmonett
                          and Daniel G. A. Smith
                              UHF Reference
                       12 Threads,   3814 MiB Core
         ---------------------------------------------------------

  ==> Geometry <==

    Molecular point group: c2v
    Full point group: C2v

    Geometry (in Angstrom), charge = 0, multiplicity = 1:

       Center              X                  Y                   Z               Mass       
    ------------   -----------------  -----------------  -----------------  -----------------
         O            0.000000000000     0.000000000000    -0.066121188674    15.994914619570
         H            0.000000000000    -0.756802197968     0.524695623526     1.007825032230
         H           -0.000000000000     0.756802197968     0.524695623526     1.007825032230

  Running in c2v symmetry.

  Rotational constants: A =     26.97870  B =     14.60214  C =      9.47424 [cm^-1]
  Rotational constants: A = 808801.17918  B = 437761.22716  C = 284030.54265 [MHz]
  Nuclear repulsion =    9.168209979733913

  Charge       = 0
  Multiplicity = 1
  Electrons    = 10
  Nalpha       = 5
  Nbeta        = 5

  ==> Algorithm <==

  SCF Algorithm Type is PK.
  DIIS enabled.
  MOM disabled.
  Fractional occupation disabled.
  Guess Type is SAD.
  Energy threshold   = 1.00e-10
  Density threshold  = 1.00e-08
  Integral threshold = 0.00e+00

  ==> Primary Basis <==

  Basis Set: AUG-CC-PVTZ
    Blend: AUG-CC-PVTZ
    Number of shells: 32
    Number of basis function: 92
    Number of Cartesian functions: 105
    Spherical Harmonics?: true
    Max angular momentum: 3

  ==> Pre-Iterations <==

   -------------------------------------------------------
    Irrep   Nso     Nmo     Nalpha   Nbeta   Ndocc  Nsocc
   -------------------------------------------------------
     A1        35      35       0       0       0       0
     A2        12      12       0       0       0       0
     B1        18      18       0       0       0       0
     B2        27      27       0       0       0       0
   -------------------------------------------------------
    Total      92      92       5       5       5       0
   -------------------------------------------------------

  ==> Integral Setup <==

  Using in-core PK algorithm.
   Calculation information:
      Number of atoms:                   3
      Number of AO shells:              32
      Number of primitives:             52
      Number of atomic orbitals:       105
      Number of basis functions:        92

      Integral cutoff                 1.00e-12
      Number of threads:                12

  Performing in-core PK
  Using 18305562 doubles for integral storage.
  We computed 240258 shell quartets total.
  Whereas there are 139656 unique shell quartets.
    72.04 percent of shell quartets recomputed by reordering.

  ==> DiskJK: Disk-Based J/K Matrices <==

    J tasked:                  Yes
    K tasked:                  Yes
    wK tasked:                  No
    Memory [MiB]:             2861
    Schwarz Cutoff:          1E-12

    OpenMP threads:             12

  Minimum eigenvalue in the overlap matrix is 3.8784114987E-04.
  Using Symmetric Orthogonalization.

  SCF Guess: Superposition of Atomic Densities via on-the-fly atomic UHF.

  ==> Iterations <==

                        Total Energy        Delta E     RMS |[F,P]|

   @UHF iter SAD:   -75.47523752244980   -7.54752e+01   0.00000e+00 
   @UHF iter   1:   -75.97596688466994   -5.00729e-01   9.51826e-03 DIIS
   @UHF iter   2:   -76.02844966539661   -5.24828e-02   6.49444e-03 DIIS
   @UHF iter   3:   -76.05995855059270   -3.15089e-02   4.41072e-04 DIIS
   @UHF iter   4:   -76.06034790118889   -3.89351e-04   1.05718e-04 DIIS
   @UHF iter   5:   -76.06037229881970   -2.43976e-05   2.40107e-05 DIIS
   @UHF iter   6:   -76.06037429434812   -1.99553e-06   5.25518e-06 DIIS
   @UHF iter   7:   -76.06037439944912   -1.05101e-07   9.45708e-07 DIIS
   @UHF iter   8:   -76.06037440244094   -2.99183e-09   1.58634e-07 DIIS
   @UHF iter   9:   -76.06037440250688   -6.59384e-11   3.89280e-08 DIIS
   @UHF iter  10:   -76.06037440251076   -3.87956e-12   5.72073e-09 DIIS
  Energy and wave function converged.


  ==> Post-Iterations <==

   @Spin Contamination Metric:  -6.217248938E-15
   @S^2 Expected:                0.000000000E+00
   @S^2 Observed:               -6.217248938E-15
   @S   Expected:                0.000000000E+00
   @S   Observed:                0.000000000E+00

    Orbital Energies [Eh]
    ---------------------

    Alpha Occupied:                                                       

       1A1   -20.567906     2A1    -1.352459     1B2    -0.715357  
       3A1    -0.585318     1B1    -0.510264  

    Alpha Virtual:                                                        

       4A1     0.029378     2B2     0.047702     5A1     0.135883  
       2B1     0.158732     6A1     0.175218     3B2     0.183096  
       4B2     0.227215     7A1     0.244988     1A2     0.265426  
       3B1     0.299998     8A1     0.310132     5B2     0.365841  
       9A1     0.437586     6B2     0.466262     7B2     0.599215  
      10A1     0.658662    11A1     0.707951     2A2     0.722680  
       4B1     0.731610    12A1     0.830979     5B1     0.846519  
      13A1     0.891995     8B2     0.912738     6B1     0.918018  
       3A2     0.922538     9B2     0.930975    14A1     0.961347  
      15A1     1.021330    10B2     1.043492     7B1     1.082626  
      11B2     1.108624     4A2     1.176509    16A1     1.182305  
      12B2     1.260569     5A2     1.510436    17A1     1.534361  
       8B1     1.583113    18A1     1.804784    13B2     1.821896  
      14B2     1.985170    19A1     2.118457     9B1     2.262803  
       6A2     2.315911    20A1     2.326565    21A1     2.418487  
      10B1     2.420853    15B2     2.443051    22A1     2.479683  
      16B2     2.676269    11B1     2.697648    23A1     2.772123  
      17B2     2.815004     7A2     2.884502    18B2     3.654250  
      24A1     3.741977     8A2     4.018807    12B1     4.083832  
      25A1     4.163201    19B2     4.249067    13B1     4.286640  
      26A1     4.373533     9A2     4.377578    14B1     4.405730  
      20B2     4.518460    27A1     4.726186    21B2     4.846063  
      10A2     5.150390    22B2     5.150775    23B2     5.250599  
      28A1     5.326765    15B1     5.524336    29A1     5.662679  
      30A1     6.179329    24B2     6.512506    16B1     6.709233  
      31A1     6.900446    17B1     7.132221    18B1     7.252147  
      25B2     7.300173    11A2     7.314029    32A1     7.329093  
      12A2     7.354595    33A1     7.533629    34A1     7.896823  
      26B2     7.925926    27B2     8.805496    35A1    15.743000  

    Beta Occupied:                                                        

       1A1   -20.567906     2A1    -1.352459     1B2    -0.715357  
       3A1    -0.585318     1B1    -0.510264  

    Beta Virtual:                                                         

       4A1     0.029378     2B2     0.047702     5A1     0.135883  
       2B1     0.158732     6A1     0.175218     3B2     0.183096  
       4B2     0.227215     7A1     0.244988     1A2     0.265426  
       3B1     0.299998     8A1     0.310132     5B2     0.365841  
       9A1     0.437586     6B2     0.466262     7B2     0.599215  
      10A1     0.658662    11A1     0.707951     2A2     0.722680  
       4B1     0.731610    12A1     0.830979     5B1     0.846519  
      13A1     0.891995     8B2     0.912738     6B1     0.918018  
       3A2     0.922538     9B2     0.930975    14A1     0.961347  
      15A1     1.021330    10B2     1.043492     7B1     1.082626  
      11B2     1.108624     4A2     1.176509    16A1     1.182305  
      12B2     1.260569     5A2     1.510436    17A1     1.534361  
       8B1     1.583113    18A1     1.804784    13B2     1.821896  
      14B2     1.985170    19A1     2.118457     9B1     2.262803  
       6A2     2.315911    20A1     2.326565    21A1     2.418487  
      10B1     2.420853    15B2     2.443051    22A1     2.479683  
      16B2     2.676269    11B1     2.697648    23A1     2.772123  
      17B2     2.815004     7A2     2.884502    18B2     3.654250  
      24A1     3.741977     8A2     4.018807    12B1     4.083832  
      25A1     4.163201    19B2     4.249067    13B1     4.286640  
      26A1     4.373533     9A2     4.377578    14B1     4.405730  
      20B2     4.518460    27A1     4.726186    21B2     4.846063  
      10A2     5.150390    22B2     5.150775    23B2     5.250599  
      28A1     5.326765    15B1     5.524336    29A1     5.662679  
      30A1     6.179329    24B2     6.512506    16B1     6.709233  
      31A1     6.900446    17B1     7.132221    18B1     7.252147  
      25B2     7.300173    11A2     7.314029    32A1     7.329093  
      12A2     7.354595    33A1     7.533629    34A1     7.896823  
      26B2     7.925926    27B2     8.805496    35A1    15.743000  

    Final Occupation by Irrep:
             A1    A2    B1    B2 
    DOCC [     3,    0,    1,    1 ]
    SOCC [     0,    0,    0,    0 ]

  @UHF Final Energy:   -76.06037440251076

   => Energetics <=

    Nuclear Repulsion Energy =              9.1682099797339127
    One-Electron Energy =                -122.9945622992996164
    Two-Electron Energy =                  37.7659779170549399
    Total Energy =                        -76.0603744025107602

  UHF NO Occupations:
  HONO-2 :    1 B1 2.0000000
  HONO-1 :    2 A1 2.0000000
  HONO-0 :    3 A1 2.0000000
  LUNO+0 :    4 A1 0.0000000
  LUNO+1 :    2 B1 0.0000000
  LUNO+2 :    5 A1 0.0000000
  LUNO+3 :    6 A1 0.0000000


Computation Completed


Properties will be evaluated at   0.000000,   0.000000,   0.000000 [a0]

Properties computed using the SCF density matrix

  Nuclear Dipole Moment: [e a0]
     X:     0.0000      Y:     0.0000      Z:     0.9835

  Electronic Dipole Moment: [e a0]
     X:     0.0000      Y:     0.0000      Z:    -0.1995

  Dipole Moment: [e a0]
     X:     0.0000      Y:     0.0000      Z:     0.7840     Total:     0.7840

  Dipole Moment: [D]
     X:     0.0000      Y:     0.0000      Z:     1.9927     Total:     1.9927


*** tstop() called on d3-15.compute.lan at Mon Mar  8 09:48:52 2021
Module time:
	user time   =      22.72 seconds =       0.38 minutes
	system time =       1.37 seconds =       0.02 minutes
	total time  =          2 seconds =       0.03 minutes
Total time:
	user time   =      22.72 seconds =       0.38 minutes
	system time =       1.37 seconds =       0.02 minutes
	total time  =          2 seconds =       0.03 minutes
 MINTS: Wrapper to libmints.
   by Justin Turney

   Calculation information:
      Number of threads:                12
      Number of atoms:                   3
      Number of AO shells:              32
      Number of SO shells:              23
      Number of primitives:             52
      Number of atomic orbitals:       105
      Number of basis functions:        92

      Number of irreps:                  4
      Integral cutoff                 0.00e+00
      Number of functions per irrep: [  35   12   18   27 ]

 OEINTS: Overlap, kinetic, potential, dipole, and quadrupole integrals
         stored in file 35.

      Computing two-electron integrals...done
      Computed 2240309 non-zero two-electron integrals.
        Stored in file 33.


*** tstart() called on d3-15.compute.lan
*** at Mon Mar  8 09:48:53 2021


	Wfn Parameters:
	--------------------
	Wavefunction         = CCSD_T
	Number of irreps     = 4
	Number of MOs        = 92
	Number of active MOs = 91
	AO-Basis             = NONE
	Semicanonical        = false
	Reference            = UHF
	Print Level          = 1

	IRREP	# MOs	# FZDC	# DOCC	# SOCC	# VIRT	# FZVR
	-----	-----	------	------	------	------	------
	 A1	   35	    1	    2	    0	    32	    0
	 A2	   12	    0	    0	    0	    12	    0
	 B1	   18	    0	    1	    0	    17	    0
	 B2	   27	    0	    1	    0	    26	    0
	Transforming integrals...
	IWL integrals will be deleted.
	(OO|OO)...
	Presorting SO-basis two-electron integrals.
	Sorting File: SO Ints (nn|nn) nbuckets = 1
	Transforming the one-electron integrals and constructing Fock matrices
	Starting AA/AB first half-transformation.
	Sorting AA/AB half-transformed integrals.
	Starting BB first half-transformation.
	Sorting BB half-transformed integrals.
	First half integral transformation complete.
	Starting AA second half-transformation.
	Starting AB second half-transformation.
	Starting BB second half-transformation.
	Two-electron integral transformation complete.
	(OO|OV)...
	Starting AA second half-transformation.
	Starting AB second half-transformation.
	Starting BB second half-transformation.
	Two-electron integral transformation complete.
	(OO|VV)...
	Starting AA second half-transformation.
	Starting AB second half-transformation.
	Starting BB second half-transformation.
	Two-electron integral transformation complete.
	(OV|OO)...
	Starting AA/AB first half-transformation.
	Sorting AA/AB half-transformed integrals.
	Starting BB first half-transformation.
	Sorting BB half-transformed integrals.
	First half integral transformation complete.
	Starting AA second half-transformation.
	Starting AB second half-transformation.
	Starting BB second half-transformation.
	Two-electron integral transformation complete.
	(OV|OV)...
	Starting AA second half-transformation.
	Starting AB second half-transformation.
	Starting BB second half-transformation.
	Two-electron integral transformation complete.
	(OV|VV)...
	Starting AA second half-transformation.
	Starting AB second half-transformation.
	Starting BB second half-transformation.
	Two-electron integral transformation complete.
	(VV|OO)...
	Starting AA/AB first half-transformation.
	Sorting AA/AB half-transformed integrals.
	Starting BB first half-transformation.
	Sorting BB half-transformed integrals.
	First half integral transformation complete.
	Starting AA second half-transformation.
	Starting AB second half-transformation.
	Starting BB second half-transformation.
	Two-electron integral transformation complete.
	(VV|OV)...
	Starting AA second half-transformation.
	Starting AB second half-transformation.
	Starting BB second half-transformation.
	Two-electron integral transformation complete.
	(VV|VV)...
	Starting AA second half-transformation.
	Starting AB second half-transformation.
	Starting BB second half-transformation.
	Two-electron integral transformation complete.
	Frozen core energy     =    -61.31010638556854

	Size of irrep 0 of <AB|CD> integrals:      1.047 (MW) /      8.372 (MB)
	Size of irrep 1 of <AB|CD> integrals:      0.682 (MW) /      5.458 (MB)
	Size of irrep 2 of <AB|CD> integrals:      0.733 (MW) /      5.862 (MB)
	Size of irrep 3 of <AB|CD> integrals:      1.073 (MW) /      8.586 (MB)
	Total:                                     3.535 (MW) /     28.279 (MB)

	Size of irrep 0 of <ab|cd> integrals:      1.047 (MW) /      8.372 (MB)
	Size of irrep 1 of <ab|cd> integrals:      0.682 (MW) /      5.458 (MB)
	Size of irrep 2 of <ab|cd> integrals:      0.733 (MW) /      5.862 (MB)
	Size of irrep 3 of <ab|cd> integrals:      1.073 (MW) /      8.586 (MB)
	Total:                                     3.535 (MW) /     28.279 (MB)

	Size of irrep 0 of <Ab|Cd> integrals:      4.550 (MW) /     36.398 (MB)
	Size of irrep 1 of <Ab|Cd> integrals:      2.729 (MW) /     21.833 (MB)
	Size of irrep 2 of <Ab|Cd> integrals:      2.931 (MW) /     23.448 (MB)
	Size of irrep 3 of <Ab|Cd> integrals:      4.293 (MW) /     34.345 (MB)
	Total:                                    14.503 (MW) /    116.023 (MB)

	Size of irrep 0 of <IA|BC> integrals:      0.228 (MW) /      1.826 (MB)
	Size of irrep 1 of <IA|BC> integrals:      0.111 (MW) /      0.885 (MB)
	Size of irrep 2 of <IA|BC> integrals:      0.134 (MW) /      1.068 (MB)
	Size of irrep 3 of <IA|BC> integrals:      0.199 (MW) /      1.591 (MB)
	Total:                                     0.671 (MW) /      5.371 (MB)

	Size of irrep 0 of <ia|bc> integrals:      0.228 (MW) /      1.826 (MB)
	Size of irrep 1 of <ia|bc> integrals:      0.111 (MW) /      0.885 (MB)
	Size of irrep 2 of <ia|bc> integrals:      0.134 (MW) /      1.068 (MB)
	Size of irrep 3 of <ia|bc> integrals:      0.199 (MW) /      1.591 (MB)
	Total:                                     0.671 (MW) /      5.371 (MB)

	Size of irrep 0 of <Ia|Bc> integrals:      0.228 (MW) /      1.826 (MB)
	Size of irrep 1 of <Ia|Bc> integrals:      0.111 (MW) /      0.885 (MB)
	Size of irrep 2 of <Ia|Bc> integrals:      0.134 (MW) /      1.068 (MB)
	Size of irrep 3 of <Ia|Bc> integrals:      0.199 (MW) /      1.591 (MB)
	Total:                                     0.671 (MW) /      5.371 (MB)

	Size of irrep 0 of <iA|bC> integrals:      0.228 (MW) /      1.826 (MB)
	Size of irrep 1 of <iA|bC> integrals:      0.111 (MW) /      0.885 (MB)
	Size of irrep 2 of <iA|bC> integrals:      0.134 (MW) /      1.068 (MB)
	Size of irrep 3 of <iA|bC> integrals:      0.199 (MW) /      1.591 (MB)
	Total:                                     0.671 (MW) /      5.371 (MB)

	Size of irrep 0 of tIjAb amplitudes:       0.013 (MW) /      0.102 (MB)
	Size of irrep 1 of tIjAb amplitudes:       0.003 (MW) /      0.026 (MB)
	Size of irrep 2 of tIjAb amplitudes:       0.007 (MW) /      0.055 (MB)
	Size of irrep 3 of tIjAb amplitudes:       0.008 (MW) /      0.066 (MB)
	Total:                                     0.031 (MW) /      0.250 (MB)

	Nuclear Rep. energy          =      9.16820997973391
	SCF energy                   =    -76.06037440251076
	One-electron energy          =    -41.51016095550025
	Two-electron (AA) energy     =      3.41957066627031
	Two-electron (BB) energy     =      3.41957066627031
	Two-electron (AB) energy     =     10.75254162628332
	Two-electron energy          =     17.59168295882395
	Reference energy             =    -76.06037440251093

*** tstop() called on d3-15.compute.lan at Mon Mar  8 09:49:12 2021
Module time:
	user time   =     165.01 seconds =       2.75 minutes
	system time =       9.24 seconds =       0.15 minutes
	total time  =         19 seconds =       0.32 minutes
Total time:
	user time   =     191.35 seconds =       3.19 minutes
	system time =      10.88 seconds =       0.18 minutes
	total time  =         22 seconds =       0.37 minutes
            **************************
            *                        *
            *        CCENERGY        *
            *                        *
            **************************

    Nuclear Rep. energy (wfn)     =    9.168209979733913
    SCF energy          (wfn)     =  -76.060374402510760
    Reference energy    (file100) =  -76.060374402510931

    Input parameters:
    -----------------
    Wave function   =     CCSD_T
    Reference wfn   =     UHF
    Brueckner       =     No
    Memory (Mbytes) =     4000.0
    Maxiter         =     50
    R_Convergence   =     1.0e-10
    E_Convergence   =     1.0e-10
    Restart         =     Yes
    DIIS            =     Yes
    AO Basis        =     NONE
    ABCD            =     NEW
    Cache Level     =     2
    Cache Type      =     LRU
    Print Level     =     1
    Num. of threads =     12
    # Amps to Print =     10
    Print MP2 Amps? =     No
    Analyze T2 Amps =     No
    Print Pair Ener =     No
    Local CC        =     No
    SCS-MP2         =     False
    SCSN-MP2        =     False
    SCS-CCSD        =     False

MP2 correlation energy -0.2686146917213343
                Solving CC Amplitude Equations
                ------------------------------
  Iter             Energy              RMS        T1Diag      D1Diag    New D1Diag    D2Diag
  ----     ---------------------    ---------   ----------  ----------  ----------   --------
     0        -0.268614691721334    0.000e+00    0.000000    0.000000    0.000000    0.000000
     1        -0.267132259396006    4.760e-02    0.012082    0.000000    0.000000    0.000000
     2        -0.272195611445562    1.310e-02    0.011859    0.000000    0.000000    0.000000
     3        -0.273410961494258    6.156e-03    0.013708    0.000000    0.000000    0.000000
     4        -0.273306551700465    1.238e-03    0.014030    0.000000    0.000000    0.000000
     5        -0.273290227677920    4.561e-04    0.014162    0.000000    0.000000    0.000000
     6        -0.273291100193122    1.136e-04    0.014191    0.000000    0.000000    0.000000
     7        -0.273289887832132    3.837e-05    0.014197    0.000000    0.000000    0.000000
     8        -0.273289927421615    1.048e-05    0.014199    0.000000    0.000000    0.000000
     9        -0.273289973806550    3.211e-06    0.014200    0.000000    0.000000    0.000000
    10        -0.273289854713505    1.294e-06    0.014200    0.000000    0.000000    0.000000
    11        -0.273289871858521    4.450e-07    0.014200    0.000000    0.000000    0.000000
    12        -0.273289866929767    1.669e-07    0.014200    0.000000    0.000000    0.000000
    13        -0.273289868663414    4.935e-08    0.014200    0.000000    0.000000    0.000000
    14        -0.273289869842037    1.312e-08    0.014200    0.000000    0.000000    0.000000
    15        -0.273289869890946    4.002e-09    0.014200    0.000000    0.000000    0.000000
    16        -0.273289869892060    1.224e-09    0.014200    0.000000    0.000000    0.000000
    17        -0.273289869900477    4.203e-10    0.014200    0.000000    0.000000    0.000000
    18        -0.273289869897431    1.090e-10    0.014200    0.000000    0.000000    0.000000
    19        -0.273289869897051    3.275e-11    0.014200    0.000000    0.000000    0.000000

    Iterations converged.


    Largest TIA Amplitudes:
              2  44        -0.0150775161
              2  45        -0.0130206500
              1   1         0.0085014630
              1   4        -0.0077904682
              3  73         0.0054233768
              2  54         0.0042750069
              3  69         0.0037837719
              2  47        -0.0036732536
              3  80         0.0036045709
              1  23         0.0033895598

    Largest Tia Amplitudes:
              2  44        -0.0150775161
              2  45        -0.0130206500
              1   1         0.0085014630
              1   4        -0.0077904682
              3  73         0.0054233768
              2  54         0.0042750069
              3  69         0.0037837719
              2  47        -0.0036732536
              3  80         0.0036045709
              1  23         0.0033895598

    Largest TIJAB Amplitudes:
      2   1  46   7        -0.0095734305
      3   1  66   6        -0.0093924726
      3   2  33   6        -0.0085510000
      3   1  65   9         0.0081082239
      2   1  49   9         0.0079259611
      3   2  65  49        -0.0076221213
      3   1  66  13         0.0074439496
      3   2  65  44        -0.0074045103
      2   1  48   9         0.0072283310
      3   2  65  45        -0.0071841900

    Largest Tijab Amplitudes:
      2   1  46   7        -0.0095734305
      3   1  66   6        -0.0093924726
      3   2  33   6        -0.0085510000
      3   1  65   9         0.0081082239
      2   1  49   9         0.0079259611
      3   2  65  49        -0.0076221213
      3   1  66  13         0.0074439496
      3   2  65  44        -0.0074045103
      2   1  48   9         0.0072283310
      3   2  65  45        -0.0071841900

    Largest TIjAb Amplitudes:
      3   3  65  65        -0.0215246411
      1   1   9   9        -0.0198968740
      2   2  49  49        -0.0156151501
      3   3  65  69        -0.0155557518
      3   3  69  65        -0.0155557518
      3   3  66  66        -0.0148894198
      1   1  66  66        -0.0137973741
      2   2  48  48        -0.0134242593
      3   3  69  69        -0.0132504385
      1   3   9  65         0.0128278776

    SCF energy       (wfn)                    =  -76.060374402510760
    Reference energy (file100)                =  -76.060374402510931

    Opposite-spin MP2 correlation energy      =   -0.203416173969758
    Same-spin MP2 correlation energy          =   -0.065198517751576
    MP2 correlation energy                    =   -0.268614691721334
      * MP2 total energy                      =  -76.328989094232270

    Opposite-spin CCSD correlation energy     =   -0.215395421717350
    Same-spin CCSD correlation energy         =   -0.057894448179700
    CCSD correlation energy                   =   -0.273289869897051
      * CCSD total energy                     =  -76.333664272407987

            **************************
            *                        *
            *        CCTRIPLES       *
            *                        *
            **************************


    Wave function   =    CCSD_T
    Reference wfn   =      UHF

    Nuclear Rep. energy (wfn)                =    9.168209979733913
    SCF energy          (wfn)                =  -76.060374402510760
    Reference energy    (file100)            =  -76.060374402510931
    CCSD energy         (file100)            =   -0.273289869897051
    Total CCSD energy   (file100)            =  -76.333664272407987

    Number of ijk index combinations:
    Spin Case AAA:                                   4
    Spin Case BBB:                                   4
    Spin Case AAB:                                  24
    Spin Case ABB:                                  24
    AAA (T) energy                             =   -0.000193338121837
    BBB (T) energy                             =   -0.000193338121837
    AAB (T) energy                             =   -0.004134952790567
    ABB (T) energy                             =   -0.004134952790567
    (T) energy                                   =   -0.008656581824808
      * CCSD(T) total energy                     =  -76.342320854232796

Stephenergy -76.3423208542328
    Psi4 stopped on: Monday, 08 March 2021 09:49AM
    Psi4 wall time for execution: 0:00:32.87

*** Psi4 exiting successfully. Buy a developer a beer!
