
    -----------------------------------------------------------------------
          Psi4: An Open-Source Ab Initio Electronic Structure Package
                               Psi4 1.3.2 release

                         Git: Rev {HEAD} ecbda83 


    R. M. Parrish, L. A. Burns, D. G. A. Smith, A. C. Simmonett,
    A. E. DePrince III, E. G. Hohenstein, U. Bozkaya, A. Yu. Sokolov,
    R. Di Remigio, R. M. Richard, J. F. Gonthier, A. M. James,
    H. R. McAlexander, A. Kumar, M. Saitow, X. Wang, B. P. Pritchard,
    P. Verma, H. F. Schaefer III, K. Patkowski, R. A. King, E. F. Valeev,
    F. A. Evangelista, J. M. Turney, T. D. Crawford, and C. D. Sherrill,
    J. Chem. Theory Comput. 13(7) pp 3185--3197 (2017).
    (doi: 10.1021/acs.jctc.7b00174)


                         Additional Contributions by
    P. Kraus, H. Kruse, M. H. Lechner, M. C. Schieber, R. A. Shaw,
    A. Alenaizan, R. Galvelis, Z. L. Glick, S. Lehtola, and J. P. Misiewicz

    -----------------------------------------------------------------------


    Psi4 started on: Wednesday, 10 March 2021 10:57AM

    Process ID: 96896
    Host:       d2-3.compute.lan
    PSIDATADIR: /apps/gb/PSI4/1.3.2/share/psi4
    Memory:     500.0 MiB
    Threads:    12
    
  ==> Input File <==

--------------------------------------------------------------------------
memory 4 GB

molecule  {
0 3
O   -1.504262781504   -0.000978429675    0.000000000000
H   -0.551910798265    0.155285098021    0.000000000000
H   -1.895231344363    0.875045321845    0.000000000000
O    1.658454983678   -0.063941753603    0.000000000000
}
set {
basis aug-cc-pvtz
reference uhf
e_convergence 10
scf_type pk
freeze_core true
}

set ccenergy {
e_convergence 10
r_convergence 10
}

e = energy('ccsd(t)')

print_out('Stephenergy {}'.format(e))

--------------------------------------------------------------------------

  Memory set to   3.725 GiB by Python driver.

*** tstart() called on d2-3.compute.lan
*** at Wed Mar 10 10:57:12 2021

   => Loading Basis Set <=

    Name: AUG-CC-PVTZ
    Role: ORBITAL
    Keyword: BASIS
    atoms 1, 4 entry O          line   327 file /apps/gb/PSI4/1.3.2/share/psi4/basis/aug-cc-pvtz.gbs 
    atoms 2-3  entry H          line    36 file /apps/gb/PSI4/1.3.2/share/psi4/basis/aug-cc-pvtz.gbs 


         ---------------------------------------------------------
                                   SCF
               by Justin Turney, Rob Parrish, Andy Simmonett
                          and Daniel G. A. Smith
                              UHF Reference
                       12 Threads,   3814 MiB Core
         ---------------------------------------------------------

  ==> Geometry <==

    Molecular point group: cs
    Full point group: Cs

    Geometry (in Angstrom), charge = 0, multiplicity = 3:

       Center              X                  Y                   Z               Mass       
    ------------   -----------------  -----------------  -----------------  -----------------
         O           -1.504262781504    -0.000978429675     0.000000000000    15.994914619570
         H           -0.551910798265     0.155285098021     0.000000000000     1.007825032230
         H           -1.895231344363     0.875045321845     0.000000000000     1.007825032230
         O            1.658454983678    -0.063941753603     0.000000000000    15.994914619570

  Running in cs symmetry.

  Rotational constants: A =     23.40362  B =      0.20008  C =      0.19838 [cm^-1]
  Rotational constants: A = 701622.77176  B =   5998.20197  C =   5947.35776 [MHz]
  Nuclear repulsion =   22.910617481103468

  Charge       = 0
  Multiplicity = 3
  Electrons    = 18
  Nalpha       = 10
  Nbeta        = 8

  ==> Algorithm <==

  SCF Algorithm Type is PK.
  DIIS enabled.
  MOM disabled.
  Fractional occupation disabled.
  Guess Type is SAD.
  Energy threshold   = 1.00e-10
  Density threshold  = 1.00e-08
  Integral threshold = 0.00e+00

  ==> Primary Basis <==

  Basis Set: AUG-CC-PVTZ
    Blend: AUG-CC-PVTZ
    Number of shells: 46
    Number of basis function: 138
    Number of Cartesian functions: 160
    Spherical Harmonics?: true
    Max angular momentum: 3

  ==> Pre-Iterations <==

   -------------------------------------------------------
    Irrep   Nso     Nmo     Nalpha   Nbeta   Ndocc  Nsocc
   -------------------------------------------------------
     A'        92      92       0       0       0       0
     A"        46      46       0       0       0       0
   -------------------------------------------------------
    Total     138     138      10       8       8       2
   -------------------------------------------------------

  ==> Integral Setup <==

  Using in-core PK algorithm.
   Calculation information:
      Number of atoms:                   4
      Number of AO shells:              46
      Number of primitives:             82
      Number of atomic orbitals:       160
      Number of basis functions:       138

      Integral cutoff                 1.00e-12
      Number of threads:                12

  Performing in-core PK
  Using 91996872 doubles for integral storage.
  We computed 901893 shell quartets total.
  Whereas there are 584821 unique shell quartets.
    54.22 percent of shell quartets recomputed by reordering.

  ==> DiskJK: Disk-Based J/K Matrices <==

    J tasked:                  Yes
    K tasked:                  Yes
    wK tasked:                  No
    Memory [MiB]:             2861
    Schwarz Cutoff:          1E-12

    OpenMP threads:             12

  Minimum eigenvalue in the overlap matrix is 2.9620913732E-04.
  Using Symmetric Orthogonalization.

  SCF Guess: Superposition of Atomic Densities via on-the-fly atomic UHF.

  ==> Iterations <==

                        Total Energy        Delta E     RMS |[F,P]|

   @UHF iter SAD:  -149.40076876223662   -1.49401e+02   0.00000e+00 
   @UHF iter   1:  -150.76371857360778   -1.36295e+00   5.05027e-03 DIIS
   @UHF iter   2:  -150.83797975738599   -7.42612e-02   3.27902e-03 DIIS
   @UHF iter   3:  -150.87313056047276   -3.51508e-02   3.93227e-04 DIIS
   @UHF iter   4:  -150.87424581583053   -1.11526e-03   1.30753e-04 DIIS
   @UHF iter   5:  -150.87437291014618   -1.27094e-04   5.12170e-05 DIIS
   @UHF iter   6:  -150.87440723717171   -3.43270e-05   1.54418e-05 DIIS
   @UHF iter   7:  -150.87441108403075   -3.84686e-06   5.60345e-06 DIIS
   @UHF iter   8:  -150.87441195626496   -8.72234e-07   4.46207e-06 DIIS
   @UHF iter   9:  -150.87441270151265   -7.45248e-07   4.34586e-06 DIIS
   @UHF iter  10:  -150.87441385080422   -1.14929e-06   4.28686e-06 DIIS
   @UHF iter  11:  -150.87442038180768   -6.53100e-06   4.00331e-06 DIIS
   @UHF iter  12:  -150.87443716291455   -1.67811e-05   3.71656e-06 DIIS
   @UHF iter  13:  -150.87443918521222   -2.02230e-06   3.24522e-06 DIIS
   @UHF iter  14:  -150.87445623995700   -1.70547e-05   8.03710e-06 DIIS
   @UHF iter  15:  -150.87445618111761    5.88394e-08   6.19166e-06 DIIS
   @UHF iter  16:  -150.87445790125963   -1.72014e-06   6.26665e-06 DIIS
   @UHF iter  17:  -150.87445810567976   -2.04420e-07   2.70069e-06 DIIS
   @UHF iter  18:  -150.87445818505370   -7.93739e-08   1.23897e-06 DIIS
   @UHF iter  19:  -150.87445819683055   -1.17768e-08   1.85592e-07 DIIS
   @UHF iter  20:  -150.87445819685519   -2.46416e-11   1.79986e-07 DIIS
   @UHF iter  21:  -150.87445819703413   -1.78943e-10   5.82231e-09 DIIS
   @UHF iter  22:  -150.87445819703541   -1.27898e-12   9.93175e-10 DIIS
  Energy and wave function converged.


  ==> Post-Iterations <==

   @Spin Contamination Metric:   9.375829818E-03
   @S^2 Expected:                2.000000000E+00
   @S^2 Observed:                2.009375830E+00
   @S   Expected:                1.000000000E+00
   @S   Observed:                1.000000000E+00

    Orbital Energies [Eh]
    ---------------------

    Alpha Occupied:                                                       

       1Ap   -20.733183     2Ap   -20.558610     3Ap    -1.442515  
       4Ap    -1.342688     5Ap    -0.733282     1App   -0.732904  
       6Ap    -0.710583     7Ap    -0.634594     8Ap    -0.574438  
       2App   -0.501775  

    Alpha Virtual:                                                        

       9Ap     0.034243    10Ap     0.053460    11Ap     0.128160  
       3App    0.132893    12Ap     0.148154    13Ap     0.160815  
      14Ap     0.183944     4App    0.186820    15Ap     0.214103  
      16Ap     0.241931    17Ap     0.264454     5App    0.286567  
      18Ap     0.304118     6App    0.320707    19Ap     0.363982  
      20Ap     0.406329    21Ap     0.460946    22Ap     0.568747  
       7App    0.602518    23Ap     0.608525    24Ap     0.627282  
      25Ap     0.681509     8App    0.709527    26Ap     0.714951  
       9App    0.736650    10App    0.748780    27Ap     0.750709  
      28Ap     0.811563    11App    0.826054    29Ap     0.836753  
      12App    0.890690    30Ap     0.892153    31Ap     0.922771  
      32Ap     0.945266    13App    0.947990    33Ap     0.951245  
      14App    0.971965    34Ap     0.979002    35Ap     1.044153  
      36Ap     1.135731    15App    1.153751    37Ap     1.170120  
      38Ap     1.185073    39Ap     1.261548    16App    1.295227  
      40Ap     1.315996    17App    1.527756    41Ap     1.588350  
      18App    1.598509    42Ap     1.716118    43Ap     1.808619  
      44Ap     1.842354    45Ap     1.977538    19App    1.977636  
      46Ap     1.979605    20App    2.013138    47Ap     2.018050  
      21App    2.048540    48Ap     2.062068    22App    2.122990  
      49Ap     2.153300    50Ap     2.175842    23App    2.212957  
      24App    2.303345    51Ap     2.309054    52Ap     2.339608  
      53Ap     2.414640    25App    2.441309    54Ap     2.460742  
      55Ap     2.490611    26App    2.526109    56Ap     2.628500  
      57Ap     2.708276    27App    2.727932    58Ap     2.737100  
      59Ap     2.861691    60Ap     2.932688    28App    2.944178  
      61Ap     3.697995    62Ap     3.891337    29App    4.035207  
      30App    4.062944    63Ap     4.074457    31App    4.177853  
      64Ap     4.210317    65Ap     4.264247    32App    4.304881  
      33App    4.391243    66Ap     4.410331    34App    4.429414  
      67Ap     4.445182    68Ap     4.601308    69Ap     4.779136  
      70Ap     4.958016    35App    5.155917    71Ap     5.167752  
      72Ap     5.300845    73Ap     5.389502    36App    5.524302  
      74Ap     5.693182    75Ap     6.186486    37App    6.312256  
      76Ap     6.312286    38App    6.375499    77Ap     6.378220  
      39App    6.518816    78Ap     6.520771    79Ap     6.559954  
      80Ap     6.637455    40App    6.735614    81Ap     6.814339  
      41App    6.819909    82Ap     6.918839    42App    6.936709  
      83Ap     6.961116    84Ap     7.051006    43App    7.148633  
      44App    7.272343    45App    7.324705    85Ap     7.329418  
      86Ap     7.361823    46App    7.436102    87Ap     7.648368  
      88Ap     7.945264    89Ap     7.961246    90Ap     8.808097  
      91Ap     9.519479    92Ap    16.294539  

    Beta Occupied:                                                        

       1Ap   -20.654395     2Ap   -20.558742     3Ap    -1.343267  
       4Ap    -1.100048     5Ap    -0.709789     6Ap    -0.579566  
       7Ap    -0.541211     1App   -0.501821  

    Beta Virtual:                                                         

       8Ap     0.034395     2App    0.049291     9Ap     0.049536  
      10Ap     0.055166    11Ap     0.143883    12Ap     0.152939  
       3App    0.161208    13Ap     0.178105    14Ap     0.207807  
      15Ap     0.225496     4App    0.227147    16Ap     0.250633  
      17Ap     0.265677     5App    0.286779    18Ap     0.306262  
       6App    0.324463    19Ap     0.367886    20Ap     0.417234  
      21Ap     0.462174    22Ap     0.572307    23Ap     0.627974  
       7App    0.634910    24Ap     0.640371    25Ap     0.686303  
      26Ap     0.715619     8App    0.721564     9App    0.739784  
      10App    0.750543    27Ap     0.767153    28Ap     0.817942  
      29Ap     0.867903    11App    0.868968    30Ap     0.919981  
      31Ap     0.941887    12App    0.941894    13App    0.950096  
      32Ap     0.952567    33Ap     0.970542    34Ap     1.017768  
      14App    1.020226    35Ap     1.046238    15App    1.156891  
      36Ap     1.163994    37Ap     1.173263    38Ap     1.215829  
      39Ap     1.264707    16App    1.305830    40Ap     1.324738  
      17App    1.528504    41Ap     1.590576    18App    1.599923  
      42Ap     1.742288    43Ap     1.813962    44Ap     1.853213  
      45Ap     1.987908    46Ap     2.015602    19App    2.015613  
      20App    2.053849    47Ap     2.066617    21App    2.171354  
      48Ap     2.176342    22App    2.179567    49Ap     2.193969  
      50Ap     2.244718    23App    2.249936    24App    2.306742  
      51Ap     2.314555    52Ap     2.362110    53Ap     2.419019  
      25App    2.444029    54Ap     2.461543    55Ap     2.496965  
      26App    2.534574    56Ap     2.635741    57Ap     2.724851  
      27App    2.729259    58Ap     2.741116    59Ap     2.863511  
      60Ap     2.937024    28App    2.944814    61Ap     3.698706  
      62Ap     3.893698    29App    4.038123    30App    4.146563  
      63Ap     4.196020    64Ap     4.242709    31App    4.262607  
      65Ap     4.276058    32App    4.304947    33App    4.391314  
      66Ap     4.413796    34App    4.430078    67Ap     4.489553  
      68Ap     4.603862    69Ap     4.780833    70Ap     4.960001  
      35App    5.155905    71Ap     5.168071    72Ap     5.301092  
      73Ap     5.390703    36App    5.524361    74Ap     5.693526  
      75Ap     6.187738    76Ap     6.421111    37App    6.421115  
      38App    6.450709    77Ap     6.453443    78Ap     6.535946  
      39App    6.572682    79Ap     6.600648    80Ap     6.682337  
      40App    6.741512    81Ap     6.920642    41App    7.005051  
      82Ap     7.006571    42App    7.045777    83Ap     7.068207  
      84Ap     7.130777    43App    7.151273    44App    7.272654  
      45App    7.325356    85Ap     7.329698    86Ap     7.362598  
      46App    7.436516    87Ap     7.649205    88Ap     7.945862  
      89Ap     7.961985    90Ap     8.809676    91Ap     9.594485  
      92Ap    16.294804  

    Final Occupation by Irrep:
             Ap   App 
    DOCC [     7,    1 ]
    SOCC [     1,    1 ]

  @UHF Final Energy:  -150.87445819703541

   => Energetics <=

    Nuclear Repulsion Energy =             22.9106174811034684
    One-Electron Energy =                -253.6167375917617051
    Two-Electron Energy =                  79.8316619136228383
    Total Energy =                       -150.8744581970354091

  UHF NO Occupations:
  HONO-2 :    7 Ap 1.9970277
  HONO-1 :    8 Ap 1.0000000
  HONO-0 :    2App 1.0000000
  LUNO+0 :    9 Ap 0.0029723
  LUNO+1 :   10 Ap 0.0017166
  LUNO+2 :   11 Ap 0.0000024
  LUNO+3 :   12 Ap 0.0000018


Computation Completed


Properties will be evaluated at   0.000000,   0.000000,   0.000000 [a0]

Properties computed using the SCF density matrix

  Nuclear Dipole Moment: [e a0]
     X:    -2.2934      Y:     0.9656      Z:     0.0000

  Electronic Dipole Moment: [e a0]
     X:     2.7574      Y:    -0.2924      Z:     0.0000

  Dipole Moment: [e a0]
     X:     0.4640      Y:     0.6732      Z:     0.0000     Total:     0.8177

  Dipole Moment: [D]
     X:     1.1795      Y:     1.7112      Z:     0.0000     Total:     2.0783


*** tstop() called on d2-3.compute.lan at Wed Mar 10 10:57:18 2021
Module time:
	user time   =      53.83 seconds =       0.90 minutes
	system time =       2.40 seconds =       0.04 minutes
	total time  =          6 seconds =       0.10 minutes
Total time:
	user time   =      53.83 seconds =       0.90 minutes
	system time =       2.40 seconds =       0.04 minutes
	total time  =          6 seconds =       0.10 minutes
 MINTS: Wrapper to libmints.
   by Justin Turney

   Calculation information:
      Number of threads:                12
      Number of atoms:                   4
      Number of AO shells:              46
      Number of SO shells:              46
      Number of primitives:             82
      Number of atomic orbitals:       160
      Number of basis functions:       138

      Number of irreps:                  2
      Integral cutoff                 0.00e+00
      Number of functions per irrep: [  92   46 ]

 OEINTS: Overlap, kinetic, potential, dipole, and quadrupole integrals
         stored in file 35.

      Computing two-electron integrals...done
      Computed 22935528 non-zero two-electron integrals.
        Stored in file 33.


*** tstart() called on d2-3.compute.lan
*** at Wed Mar 10 10:57:22 2021


	Wfn Parameters:
	--------------------
	Wavefunction         = CCSD_T
	Number of irreps     = 2
	Number of MOs        = 138
	Number of active MOs = 136
	AO-Basis             = NONE
	Semicanonical        = false
	Reference            = UHF
	Print Level          = 1

	IRREP	# MOs	# FZDC	# DOCC	# SOCC	# VIRT	# FZVR
	-----	-----	------	------	------	------	------
	 Ap	   92	    2	    5	    1	    84	    0
	 App	   46	    0	    1	    1	    44	    0
	Transforming integrals...
	IWL integrals will be deleted.
	(OO|OO)...
	Presorting SO-basis two-electron integrals.
	Sorting File: SO Ints (nn|nn) nbuckets = 1
	Transforming the one-electron integrals and constructing Fock matrices
	Starting AA/AB first half-transformation.
	Sorting AA/AB half-transformed integrals.
	Starting BB first half-transformation.
	Sorting BB half-transformed integrals.
	First half integral transformation complete.
	Starting AA second half-transformation.
	Starting AB second half-transformation.
	Starting BB second half-transformation.
	Two-electron integral transformation complete.
	(OO|OV)...
	Starting AA second half-transformation.
	Starting AB second half-transformation.
	Starting BB second half-transformation.
	Two-electron integral transformation complete.
	(OO|VV)...
	Starting AA second half-transformation.
	Starting AB second half-transformation.
	Starting BB second half-transformation.
	Two-electron integral transformation complete.
	(OV|OO)...
	Starting AA/AB first half-transformation.
	Sorting AA/AB half-transformed integrals.
	Starting BB first half-transformation.
	Sorting BB half-transformed integrals.
	First half integral transformation complete.
	Starting AA second half-transformation.
	Starting AB second half-transformation.
	Starting BB second half-transformation.
	Two-electron integral transformation complete.
	(OV|OV)...
	Starting AA second half-transformation.
	Starting AB second half-transformation.
	Starting BB second half-transformation.
	Two-electron integral transformation complete.
	(OV|VV)...
	Starting AA second half-transformation.
	Starting AB second half-transformation.
	Starting BB second half-transformation.
	Two-electron integral transformation complete.
	(VV|OO)...
	Starting AA/AB first half-transformation.
	Sorting AA/AB half-transformed integrals.
	Starting BB first half-transformation.
	Sorting BB half-transformed integrals.
	First half integral transformation complete.
	Starting AA second half-transformation.
	Starting AB second half-transformation.
	Starting BB second half-transformation.
	Two-electron integral transformation complete.
	(VV|OV)...
	Starting AA second half-transformation.
	Starting AB second half-transformation.
	Starting BB second half-transformation.
	Two-electron integral transformation complete.
	(VV|VV)...
	Starting AA second half-transformation.
	Starting AB second half-transformation.
	Starting BB second half-transformation.
	Two-electron integral transformation complete.
	Frozen core energy     =   -125.85921030600700

	Size of irrep 0 of <AB|CD> integrals:     19.643 (MW) /    157.141 (MB)
	Size of irrep 1 of <AB|CD> integrals:     13.660 (MW) /    109.283 (MB)
	Total:                                    33.303 (MW) /    266.424 (MB)

	Size of irrep 0 of <ab|cd> integrals:     20.794 (MW) /    166.349 (MB)
	Size of irrep 1 of <ab|cd> integrals:     14.631 (MW) /    117.045 (MB)
	Total:                                    35.424 (MW) /    283.394 (MB)

	Size of irrep 0 of <Ab|Cd> integrals:     83.174 (MW) /    665.395 (MB)
	Size of irrep 1 of <Ab|Cd> integrals:     56.550 (MW) /    452.403 (MB)
	Total:                                   139.725 (MW) /   1117.798 (MB)

	Size of irrep 0 of <IA|BC> integrals:      5.323 (MW) /     42.586 (MB)
	Size of irrep 1 of <IA|BC> integrals:      3.193 (MW) /     25.547 (MB)
	Total:                                     8.517 (MW) /     68.133 (MB)

	Size of irrep 0 of <ia|bc> integrals:      4.348 (MW) /     34.780 (MB)
	Size of irrep 1 of <ia|bc> integrals:      2.372 (MW) /     18.972 (MB)
	Total:                                     6.719 (MW) /     53.752 (MB)

	Size of irrep 0 of <Ia|Bc> integrals:      5.472 (MW) /     43.776 (MB)
	Size of irrep 1 of <Ia|Bc> integrals:      3.309 (MW) /     26.470 (MB)
	Total:                                     8.781 (MW) /     70.246 (MB)

	Size of irrep 0 of <iA|bC> integrals:      4.232 (MW) /     33.853 (MB)
	Size of irrep 1 of <iA|bC> integrals:      2.286 (MW) /     18.289 (MB)
	Total:                                     6.518 (MW) /     52.142 (MB)

	Size of irrep 0 of tIjAb amplitudes:       0.292 (MW) /      2.335 (MB)
	Size of irrep 1 of tIjAb amplitudes:       0.120 (MW) /      0.963 (MB)
	Total:                                     0.412 (MW) /      3.297 (MB)

	Nuclear Rep. energy          =     22.91061748110347
	SCF energy                   =   -150.87445819703541
	One-electron energy          =    -84.40324790541487
	Two-electron (AA) energy     =     10.13701130114486
	Two-electron (BB) energy     =      5.39250420071367
	Two-electron (AB) energy     =     20.94786703142306
	Two-electron energy          =     36.47738253328158
	Reference energy             =   -150.87445819703680

*** tstop() called on d2-3.compute.lan at Wed Mar 10 10:58:02 2021
Module time:
	user time   =     225.19 seconds =       3.75 minutes
	system time =      19.17 seconds =       0.32 minutes
	total time  =         40 seconds =       0.67 minutes
Total time:
	user time   =     286.34 seconds =       4.77 minutes
	system time =      22.49 seconds =       0.37 minutes
	total time  =         50 seconds =       0.83 minutes
            **************************
            *                        *
            *        CCENERGY        *
            *                        *
            **************************

    Nuclear Rep. energy (wfn)     =   22.910617481103468
    SCF energy          (wfn)     = -150.874458197035409
    Reference energy    (file100) = -150.874458197036802

    Input parameters:
    -----------------
    Wave function   =     CCSD_T
    Reference wfn   =     UHF
    Brueckner       =     No
    Memory (Mbytes) =     4000.0
    Maxiter         =     50
    R_Convergence   =     1.0e-10
    E_Convergence   =     1.0e-10
    Restart         =     Yes
    DIIS            =     Yes
    AO Basis        =     NONE
    ABCD            =     NEW
    Cache Level     =     2
    Cache Type      =     LRU
    Print Level     =     1
    Num. of threads =     12
    # Amps to Print =     10
    Print MP2 Amps? =     No
    Analyze T2 Amps =     No
    Print Pair Ener =     No
    Local CC        =     No
    SCS-MP2         =     False
    SCSN-MP2        =     False
    SCS-CCSD        =     False

MP2 correlation energy -0.4166188487866529
                Solving CC Amplitude Equations
                ------------------------------
  Iter             Energy              RMS        T1Diag      D1Diag    New D1Diag    D2Diag
  ----     ---------------------    ---------   ----------  ----------  ----------   --------
     0        -0.416618848786653    0.000e+00    0.000000    0.000000    0.000000    0.000000
     1        -0.427335266409039    5.690e-02    0.010556    0.000000    0.000000    0.000000
     2        -0.435423812755346    1.690e-02    0.011034    0.000000    0.000000    0.000000
     3        -0.437546239195946    8.578e-03    0.012906    0.000000    0.000000    0.000000
     4        -0.437420401720817    2.536e-03    0.013274    0.000000    0.000000    0.000000
     5        -0.437405900034366    1.322e-03    0.013430    0.000000    0.000000    0.000000
     6        -0.437433167891903    5.153e-04    0.013453    0.000000    0.000000    0.000000
     7        -0.437437813641044    2.654e-04    0.013447    0.000000    0.000000    0.000000
     8        -0.437438410309012    9.979e-05    0.013443    0.000000    0.000000    0.000000
     9        -0.437439788664779    7.440e-05    0.013444    0.000000    0.000000    0.000000
    10        -0.437438221341555    6.417e-05    0.013445    0.000000    0.000000    0.000000
    11        -0.437438368972829    6.127e-05    0.013446    0.000000    0.000000    0.000000
    12        -0.437438082905271    5.955e-05    0.013448    0.000000    0.000000    0.000000
    13        -0.437438075588327    5.842e-05    0.013452    0.000000    0.000000    0.000000
    14        -0.437439249521214    5.655e-05    0.013470    0.000000    0.000000    0.000000
    15        -0.437439627466213    5.004e-05    0.013541    0.000000    0.000000    0.000000
    16        -0.437439397274328    3.345e-05    0.013680    0.000000    0.000000    0.000000
    17        -0.437439052405430    1.615e-05    0.013748    0.000000    0.000000    0.000000
    18        -0.437438921143738    7.577e-06    0.013765    0.000000    0.000000    0.000000
    19        -0.437439179112424    3.351e-06    0.013770    0.000000    0.000000    0.000000
    20        -0.437439290994817    1.502e-06    0.013771    0.000000    0.000000    0.000000
    21        -0.437439298938986    5.925e-07    0.013771    0.000000    0.000000    0.000000
    22        -0.437439300254088    2.815e-07    0.013771    0.000000    0.000000    0.000000
    23        -0.437439299154512    1.463e-07    0.013771    0.000000    0.000000    0.000000
    24        -0.437439298459264    6.065e-08    0.013771    0.000000    0.000000    0.000000
    25        -0.437439299423176    3.311e-08    0.013771    0.000000    0.000000    0.000000
    26        -0.437439299883219    2.570e-08    0.013771    0.000000    0.000000    0.000000
    27        -0.437439300042169    2.407e-08    0.013771    0.000000    0.000000    0.000000
    28        -0.437439299990546    2.333e-08    0.013771    0.000000    0.000000    0.000000
    29        -0.437439299826518    2.266e-08    0.013771    0.000000    0.000000    0.000000
    30        -0.437439299557819    2.159e-08    0.013771    0.000000    0.000000    0.000000
    31        -0.437439299751628    1.832e-08    0.013771    0.000000    0.000000    0.000000
    32        -0.437439300097933    9.662e-09    0.013771    0.000000    0.000000    0.000000
    33        -0.437439300201318    4.230e-09    0.013771    0.000000    0.000000    0.000000
    34        -0.437439300254441    1.730e-09    0.013771    0.000000    0.000000    0.000000
    35        -0.437439300261211    6.774e-10    0.013771    0.000000    0.000000    0.000000
    36        -0.437439300260988    2.900e-10    0.013771    0.000000    0.000000    0.000000
    37        -0.437439300258832    1.238e-10    0.013771    0.000000    0.000000    0.000000
    38        -0.437439300260312    5.893e-11    0.013771    0.000000    0.000000    0.000000

    Iterations converged.


    Largest TIA Amplitudes:
              7  87        -0.0122085458
              7  84        -0.0116266206
              7  85        -0.0094663325
              4   3         0.0090292441
              6  84        -0.0080663972
              5   9        -0.0076754147
              4  10         0.0070761886
              5   2        -0.0069997365
              2   2         0.0069045923
              7  86        -0.0062357003

    Largest Tia Amplitudes:
              5  86        -0.0123055029
              5  89        -0.0117866731
              5  85        -0.0098850990
              4   1        -0.0097326321
              3   3         0.0089973805
              3  10        -0.0070627424
              5  88        -0.0064363950
              5  87        -0.0060420616
              3  11         0.0058776542
              4   7        -0.0056938234

    Largest TIJAB Amplitudes:
      6   2  92  20        -0.0108580784
      6   2 101  38        -0.0098286385
      6   4  92  29        -0.0096590417
      6   2  92  21        -0.0088628563
      4   2  29  20        -0.0083575790
      4   2  41  40         0.0082796188
      6   2 102  38         0.0076758110
      4   2  29  21        -0.0074252785
      6   2 111  54        -0.0073302194
      6   2  88  38         0.0073092858

    Largest Tijab Amplitudes:
      4   1  42   1         0.0070323621
      4   1  91  85        -0.0067741671
      4   1  19   1         0.0063841951
      4   1 106  85        -0.0062907398
      5   2  94  13         0.0062335076
      5   2  89  13         0.0058743855
      5   2  92  17        -0.0058248101
      5   2 100  17         0.0058214851
      5   2  86  13         0.0057164259
      3   2  18  15        -0.0053750625

    Largest TIjAb Amplitudes:
      3   2  12  13         0.0181915792
      2   1  38   1        -0.0171309772
      6   1  38  85        -0.0166155871
      4   4  29  30         0.0163662470
      4   1 103  85        -0.0151626674
      2   1 101  85         0.0146792075
      4   1  41   1        -0.0144136291
      6   1 101   1        -0.0143936271
      2   1  88  85        -0.0143876403
      6   1  88   1         0.0141262532

    SCF energy       (wfn)                    = -150.874458197035409
    Reference energy (file100)                = -150.874458197036802

    Opposite-spin MP2 correlation energy      =   -0.314637666113065
    Same-spin MP2 correlation energy          =   -0.101981182673588
    MP2 correlation energy                    =   -0.416618848786653
      * MP2 total energy                      = -151.291077045823442

    Opposite-spin CCSD correlation energy     =   -0.342180262378712
    Same-spin CCSD correlation energy         =   -0.095259037881599
    CCSD correlation energy                   =   -0.437439300260312
      * CCSD total energy                     = -151.311897497297110

            **************************
            *                        *
            *        CCTRIPLES       *
            *                        *
            **************************


    Wave function   =    CCSD_T
    Reference wfn   =      UHF

    Nuclear Rep. energy (wfn)                =   22.910617481103468
    SCF energy          (wfn)                = -150.874458197035409
    Reference energy    (file100)            = -150.874458197036802
    CCSD energy         (file100)            =   -0.437439300260312
    Total CCSD energy   (file100)            = -151.311897497297110

    Number of ijk index combinations:
    Spin Case AAA:                                  56
    Spin Case BBB:                                  20
    Spin Case AAB:                                 168
    Spin Case ABB:                                 120
    AAA (T) energy                             =   -0.000399563075911
    BBB (T) energy                             =   -0.000202658181633
    AAB (T) energy                             =   -0.006744339115198
    ABB (T) energy                             =   -0.005010569947505
    (T) energy                                   =   -0.012357130320247
      * CCSD(T) total energy                     = -151.324254627617364

Stephenergy -151.32425462761736
    Psi4 stopped on: Wednesday, 10 March 2021 11:01AM
    Psi4 wall time for execution: 0:04:02.34

*** Psi4 exiting successfully. Buy a developer a beer!
