
    -----------------------------------------------------------------------
          Psi4: An Open-Source Ab Initio Electronic Structure Package
                               Psi4 1.3.2 release

                         Git: Rev {HEAD} ecbda83 


    R. M. Parrish, L. A. Burns, D. G. A. Smith, A. C. Simmonett,
    A. E. DePrince III, E. G. Hohenstein, U. Bozkaya, A. Yu. Sokolov,
    R. Di Remigio, R. M. Richard, J. F. Gonthier, A. M. James,
    H. R. McAlexander, A. Kumar, M. Saitow, X. Wang, B. P. Pritchard,
    P. Verma, H. F. Schaefer III, K. Patkowski, R. A. King, E. F. Valeev,
    F. A. Evangelista, J. M. Turney, T. D. Crawford, and C. D. Sherrill,
    J. Chem. Theory Comput. 13(7) pp 3185--3197 (2017).
    (doi: 10.1021/acs.jctc.7b00174)


                         Additional Contributions by
    P. Kraus, H. Kruse, M. H. Lechner, M. C. Schieber, R. A. Shaw,
    A. Alenaizan, R. Galvelis, Z. L. Glick, S. Lehtola, and J. P. Misiewicz

    -----------------------------------------------------------------------


    Psi4 started on: Wednesday, 10 March 2021 10:52AM

    Process ID: 32384
    Host:       d2-9.compute.lan
    PSIDATADIR: /apps/gb/PSI4/1.3.2/share/psi4
    Memory:     500.0 MiB
    Threads:    12
    
  ==> Input File <==

--------------------------------------------------------------------------
memory 4 GB

molecule  {
0 3
O    0.000000000000   -0.000191965470   -1.647450055281
H    0.000000000000   -0.753039675968   -1.053275476161
H   -0.000000000000    0.755524741832   -1.048758791401
O    0.000000000000    0.000035383728    1.779897323919
}
set {
basis aug-cc-pvtz
reference uhf
e_convergence 10
scf_type pk
freeze_core true
}

set ccenergy {
e_convergence 10
r_convergence 10
}

e = energy('ccsd(t)')

print_out('Stephenergy {}'.format(e))

--------------------------------------------------------------------------

  Memory set to   3.725 GiB by Python driver.

*** tstart() called on d2-9.compute.lan
*** at Wed Mar 10 10:52:42 2021

   => Loading Basis Set <=

    Name: AUG-CC-PVTZ
    Role: ORBITAL
    Keyword: BASIS
    atoms 1, 4 entry O          line   327 file /apps/gb/PSI4/1.3.2/share/psi4/basis/aug-cc-pvtz.gbs 
    atoms 2-3  entry H          line    36 file /apps/gb/PSI4/1.3.2/share/psi4/basis/aug-cc-pvtz.gbs 


         ---------------------------------------------------------
                                   SCF
               by Justin Turney, Rob Parrish, Andy Simmonett
                          and Daniel G. A. Smith
                              UHF Reference
                       12 Threads,   3814 MiB Core
         ---------------------------------------------------------

  ==> Geometry <==

    Molecular point group: cs
    Full point group: Cs

    Geometry (in Angstrom), charge = 0, multiplicity = 3:

       Center              X                  Y                   Z               Mass       
    ------------   -----------------  -----------------  -----------------  -----------------
         O            0.000191965470     1.647450055281     0.000000000000    15.994914619570
         H            0.753039675968     1.053275476161     0.000000000000     1.007825032230
         H           -0.755524741832     1.048758791401     0.000000000000     1.007825032230
         O           -0.000035383728    -1.779897323919     0.000000000000    15.994914619570

  Running in cs symmetry.

  Rotational constants: A =     14.69983  B =      0.17503  C =      0.17297 [cm^-1]
  Rotational constants: A = 440689.91550  B =   5247.38293  C =   5185.63652 [MHz]
  Nuclear repulsion =   21.927310693491847

  Charge       = 0
  Multiplicity = 3
  Electrons    = 18
  Nalpha       = 10
  Nbeta        = 8

  ==> Algorithm <==

  SCF Algorithm Type is PK.
  DIIS enabled.
  MOM disabled.
  Fractional occupation disabled.
  Guess Type is SAD.
  Energy threshold   = 1.00e-10
  Density threshold  = 1.00e-08
  Integral threshold = 0.00e+00

  ==> Primary Basis <==

  Basis Set: AUG-CC-PVTZ
    Blend: AUG-CC-PVTZ
    Number of shells: 46
    Number of basis function: 138
    Number of Cartesian functions: 160
    Spherical Harmonics?: true
    Max angular momentum: 3

  ==> Pre-Iterations <==

   -------------------------------------------------------
    Irrep   Nso     Nmo     Nalpha   Nbeta   Ndocc  Nsocc
   -------------------------------------------------------
     A'        92      92       0       0       0       0
     A"        46      46       0       0       0       0
   -------------------------------------------------------
    Total     138     138      10       8       8       2
   -------------------------------------------------------

  ==> Integral Setup <==

  Using in-core PK algorithm.
   Calculation information:
      Number of atoms:                   4
      Number of AO shells:              46
      Number of primitives:             82
      Number of atomic orbitals:       160
      Number of basis functions:       138

      Integral cutoff                 1.00e-12
      Number of threads:                12

  Performing in-core PK
  Using 91996872 doubles for integral storage.
  We computed 904337 shell quartets total.
  Whereas there are 584821 unique shell quartets.
    54.63 percent of shell quartets recomputed by reordering.

  ==> DiskJK: Disk-Based J/K Matrices <==

    J tasked:                  Yes
    K tasked:                  Yes
    wK tasked:                  No
    Memory [MiB]:             2861
    Schwarz Cutoff:          1E-12

    OpenMP threads:             12

  Minimum eigenvalue in the overlap matrix is 3.7089759582E-04.
  Using Symmetric Orthogonalization.

  SCF Guess: Superposition of Atomic Densities via on-the-fly atomic UHF.

  ==> Iterations <==

                        Total Energy        Delta E     RMS |[F,P]|

   @UHF iter SAD:  -149.38293896034688   -1.49383e+02   0.00000e+00 
   @UHF iter   1:  -150.76830590195675   -1.38537e+00   4.95182e-03 DIIS
   @UHF iter   2:  -150.83873394542937   -7.04280e-02   3.20607e-03 DIIS
   @UHF iter   3:  -150.87229942591449   -3.35655e-02   3.84527e-04 DIIS
   @UHF iter   4:  -150.87341278257566   -1.11336e-03   1.27903e-04 DIIS
   @UHF iter   5:  -150.87354144657309   -1.28664e-04   5.08147e-05 DIIS
   @UHF iter   6:  -150.87357498069048   -3.35341e-05   1.45306e-05 DIIS
   @UHF iter   7:  -150.87357789636656   -2.91568e-06   3.47946e-06 DIIS
   @UHF iter   8:  -150.87357807885201   -1.82485e-07   8.69839e-07 DIIS
   @UHF iter   9:  -150.87357808975179   -1.08998e-08   1.63166e-07 DIIS
   @UHF iter  10:  -150.87357809011354   -3.61752e-10   5.90415e-08 DIIS
   @UHF iter  11:  -150.87357809019451   -8.09735e-11   4.22158e-08 DIIS
   @UHF iter  12:  -150.87357809027725   -8.27356e-11   3.53083e-08 DIIS
   @UHF iter  13:  -150.87357809033040   -5.31486e-11   3.45354e-08 DIIS
   @UHF iter  14:  -150.87357809037962   -4.92264e-11   3.43834e-08 DIIS
   @UHF iter  15:  -150.87357809046313   -8.35030e-11   3.42777e-08 DIIS
   @UHF iter  16:  -150.87357809104100   -5.77870e-10   3.35965e-08 DIIS
   @UHF iter  17:  -150.87357809553549   -4.49450e-09   2.76585e-08 DIIS
   @UHF iter  18:  -150.87357810305164   -7.51615e-09   1.99886e-08 DIIS
   @UHF iter  19:  -150.87357810318039   -1.28750e-10   1.64596e-08 DIIS
   @UHF iter  20:  -150.87357810399357   -8.13174e-10   5.67441e-09 DIIS
   @UHF iter  21:  -150.87357810401113   -1.75646e-11   1.54349e-09 DIIS
  Energy and wave function converged.


  ==> Post-Iterations <==

   @Spin Contamination Metric:   9.220799393E-03
   @S^2 Expected:                2.000000000E+00
   @S^2 Observed:                2.009220799E+00
   @S   Expected:                1.000000000E+00
   @S   Observed:                1.000000000E+00

    Orbital Energies [Eh]
    ---------------------

    Alpha Occupied:                                                       

       1Ap   -20.728937     2Ap   -20.563026     3Ap    -1.437918  
       4Ap    -1.347017     5Ap    -0.729326     1App   -0.728944  
       6Ap    -0.708101     7Ap    -0.632244     8Ap    -0.580210  
       2App   -0.505365  

    Alpha Virtual:                                                        

       9Ap     0.035486    10Ap     0.048544     3App    0.132102  
      11Ap     0.134736    12Ap     0.148021    13Ap     0.158012  
       4App    0.181127    14Ap     0.184962    15Ap     0.189279  
      16Ap     0.250209    17Ap     0.257513     5App    0.266081  
      18Ap     0.273455     6App    0.319691    19Ap     0.367553  
      20Ap     0.382362    21Ap     0.454156    22Ap     0.471833  
       7App    0.609093    23Ap     0.615723    24Ap     0.618290  
      25Ap     0.619551     8App    0.640520    26Ap     0.717642  
       9App    0.731079    27Ap     0.735830    10App    0.741979  
      28Ap     0.800466    29Ap     0.838262    11App    0.840927  
      30Ap     0.854144    12App    0.915296    31Ap     0.925247  
      13App    0.934050    32Ap     0.941828    33Ap     0.958393  
      14App    0.960543    34Ap     0.961988    35Ap     1.048667  
      36Ap     1.054342    15App    1.122942    16App    1.185760  
      37Ap     1.186465    38Ap     1.255035    39Ap     1.262067  
      40Ap     1.275154    41Ap     1.345943    17App    1.511522  
      18App    1.591749    42Ap     1.630948    43Ap     1.828271  
      44Ap     1.830057    45Ap     1.972135    19App    1.978607  
      46Ap     1.989475    47Ap     2.005381    20App    2.011054  
      21App    2.026079    48Ap     2.036270    22App    2.039704  
      49Ap     2.081048    50Ap     2.086166    23App    2.119597  
      51Ap     2.145514    52Ap     2.260328    24App    2.278751  
      25App    2.329307    53Ap     2.336998    54Ap     2.402306  
      55Ap     2.487002    56Ap     2.492924    26App    2.505364  
      57Ap     2.575275    58Ap     2.689319    27App    2.718691  
      59Ap     2.820112    28App    2.888796    60Ap     2.901113  
      61Ap     3.667007    62Ap     3.753206    29App    4.031273  
      30App    4.050706    63Ap     4.084503    31App    4.101429  
      64Ap     4.147555    65Ap     4.277821    32App    4.282970  
      66Ap     4.366793    33App    4.383147    67Ap     4.405364  
      34App    4.416489    68Ap     4.530429    69Ap     4.749187  
      70Ap     4.852662    35App    5.149644    71Ap     5.164664  
      72Ap     5.251110    73Ap     5.369420    36App    5.528231  
      74Ap     5.674653    75Ap     6.200023    37App    6.315171  
      76Ap     6.316004    38App    6.370011    77Ap     6.375201  
      39App    6.402008    78Ap     6.449971    79Ap     6.479889  
      80Ap     6.527691    40App    6.737246    41App    6.819139  
      81Ap     6.820571    42App    6.927321    82Ap     6.930692  
      83Ap     6.956745    84Ap     7.033019    43App    7.135688  
      44App    7.260338    45App    7.318681    85Ap     7.342707  
      86Ap     7.358080    46App    7.358200    87Ap     7.547369  
      88Ap     7.898914    89Ap     7.937908    90Ap     8.529701  
      91Ap     8.813234    92Ap    15.729665  

    Beta Occupied:                                                        

       1Ap   -20.650372     2Ap   -20.563064     3Ap    -1.347190  
       4Ap    -1.095617     5Ap    -0.708238     6Ap    -0.584301  
       7Ap    -0.538526     1App   -0.505356  

    Beta Virtual:                                                         

       8Ap     0.035400     9Ap     0.036605     2App    0.049905  
      10Ap     0.069579    11Ap     0.140899    12Ap     0.150600  
       3App    0.160421    13Ap     0.180884    14Ap     0.189595  
      15Ap     0.221872     4App    0.225301    16Ap     0.259207  
      17Ap     0.263107     5App    0.266395    18Ap     0.274893  
       6App    0.320333    19Ap     0.370938    20Ap     0.387409  
      21Ap     0.455286    22Ap     0.472362    23Ap     0.618176  
      24Ap     0.620692     7App    0.641321    25Ap     0.651312  
       8App    0.652630    26Ap     0.718972     9App    0.732507  
      10App    0.743960    27Ap     0.747241    28Ap     0.808975  
      29Ap     0.851337    11App    0.912197    12App    0.930477  
      30Ap     0.930570    13App    0.935447    31Ap     0.940101  
      32Ap     0.944537    33Ap     0.959352    34Ap     1.009568  
      14App    1.024945    35Ap     1.049316    36Ap     1.057044  
      15App    1.127966    16App    1.186463    37Ap     1.190540  
      38Ap     1.268653    39Ap     1.278138    40Ap     1.280909  
      41Ap     1.403606    17App    1.511628    18App    1.591851  
      42Ap     1.643529    43Ap     1.829404    44Ap     1.831284  
      45Ap     1.979173    19App    2.016704    46Ap     2.021365  
      47Ap     2.030618    20App    2.041465    21App    2.046296  
      48Ap     2.099922    49Ap     2.124823    50Ap     2.155107  
      22App    2.182379    23App    2.188920    51Ap     2.195180  
      24App    2.282959    52Ap     2.306354    25App    2.332236  
      53Ap     2.357915    54Ap     2.413125    55Ap     2.491360  
      56Ap     2.497392    26App    2.510027    57Ap     2.578278  
      58Ap     2.689480    27App    2.718779    59Ap     2.820421  
      28App    2.888818    60Ap     2.903142    61Ap     3.667044  
      62Ap     3.753351    29App    4.031361    30App    4.100794  
      63Ap     4.162199    31App    4.223502    64Ap     4.241109  
      32App    4.282991    65Ap     4.291449    33App    4.383194  
      66Ap     4.390853    67Ap     4.414156    34App    4.416672  
      68Ap     4.530627    69Ap     4.749333    70Ap     4.852752  
      35App    5.149661    71Ap     5.164669    72Ap     5.251133  
      73Ap     5.369868    36App    5.528235    74Ap     5.674986  
      75Ap     6.201700    37App    6.424020    76Ap     6.424708  
      38App    6.446672    77Ap     6.450257    39App    6.457306  
      78Ap     6.494616    79Ap     6.528695    80Ap     6.539694  
      40App    6.743640    81Ap     6.930718    41App    7.008162  
      82Ap     7.009961    42App    7.034758    83Ap     7.065808  
      84Ap     7.114000    43App    7.135959    44App    7.260294  
      45App    7.318722    85Ap     7.344774    46App    7.358259  
      86Ap     7.358754    87Ap     7.548071    88Ap     7.899143  
      89Ap     7.937894    90Ap     8.614829    91Ap     8.813174  
      92Ap    15.729659  

    Final Occupation by Irrep:
             Ap   App 
    DOCC [     7,    1 ]
    SOCC [     1,    1 ]

  @UHF Final Energy:  -150.87357810401113

   => Energetics <=

    Nuclear Repulsion Energy =             21.9273106934918474
    One-Electron Energy =                -251.6480249658549155
    Two-Electron Energy =                  78.8471361683519376
    Total Energy =                       -150.8735781040111306

  UHF NO Occupations:
  HONO-2 :    7 Ap 1.9970743
  HONO-1 :    2App 1.0000000
  HONO-0 :    8 Ap 1.0000000
  LUNO+0 :    9 Ap 0.0029257
  LUNO+1 :   10 Ap 0.0016873
  LUNO+2 :   11 Ap 0.0000024
  LUNO+3 :   12 Ap 0.0000004


Computation Completed


Properties will be evaluated at   0.000000,   0.000000,   0.000000 [a0]

Properties computed using the SCF density matrix

  Nuclear Dipole Moment: [e a0]
     X:    -0.0023      Y:     1.9700      Z:     0.0000

  Electronic Dipole Moment: [e a0]
     X:     0.0012      Y:    -2.8032      Z:     0.0000

  Dipole Moment: [e a0]
     X:    -0.0011      Y:    -0.8332      Z:     0.0000     Total:     0.8332

  Dipole Moment: [D]
     X:    -0.0028      Y:    -2.1178      Z:     0.0000     Total:     2.1178


*** tstop() called on d2-9.compute.lan at Wed Mar 10 10:52:48 2021
Module time:
	user time   =      52.02 seconds =       0.87 minutes
	system time =       2.53 seconds =       0.04 minutes
	total time  =          6 seconds =       0.10 minutes
Total time:
	user time   =      52.02 seconds =       0.87 minutes
	system time =       2.53 seconds =       0.04 minutes
	total time  =          6 seconds =       0.10 minutes
 MINTS: Wrapper to libmints.
   by Justin Turney

   Calculation information:
      Number of threads:                12
      Number of atoms:                   4
      Number of AO shells:              46
      Number of SO shells:              46
      Number of primitives:             82
      Number of atomic orbitals:       160
      Number of basis functions:       138

      Number of irreps:                  2
      Integral cutoff                 0.00e+00
      Number of functions per irrep: [  92   46 ]

 OEINTS: Overlap, kinetic, potential, dipole, and quadrupole integrals
         stored in file 35.

      Computing two-electron integrals...done
      Computed 22923008 non-zero two-electron integrals.
        Stored in file 33.


*** tstart() called on d2-9.compute.lan
*** at Wed Mar 10 10:52:52 2021


	Wfn Parameters:
	--------------------
	Wavefunction         = CCSD_T
	Number of irreps     = 2
	Number of MOs        = 138
	Number of active MOs = 136
	AO-Basis             = NONE
	Semicanonical        = false
	Reference            = UHF
	Print Level          = 1

	IRREP	# MOs	# FZDC	# DOCC	# SOCC	# VIRT	# FZVR
	-----	-----	------	------	------	------	------
	 Ap	   92	    2	    5	    1	    84	    0
	 App	   46	    0	    1	    1	    44	    0
	Transforming integrals...
	IWL integrals will be deleted.
	(OO|OO)...
	Presorting SO-basis two-electron integrals.
	Sorting File: SO Ints (nn|nn) nbuckets = 1
	Transforming the one-electron integrals and constructing Fock matrices
	Starting AA/AB first half-transformation.
	Sorting AA/AB half-transformed integrals.
	Starting BB first half-transformation.
	Sorting BB half-transformed integrals.
	First half integral transformation complete.
	Starting AA second half-transformation.
	Starting AB second half-transformation.
	Starting BB second half-transformation.
	Two-electron integral transformation complete.
	(OO|OV)...
	Starting AA second half-transformation.
	Starting AB second half-transformation.
	Starting BB second half-transformation.
	Two-electron integral transformation complete.
	(OO|VV)...
	Starting AA second half-transformation.
	Starting AB second half-transformation.
	Starting BB second half-transformation.
	Two-electron integral transformation complete.
	(OV|OO)...
	Starting AA/AB first half-transformation.
	Sorting AA/AB half-transformed integrals.
	Starting BB first half-transformation.
	Sorting BB half-transformed integrals.
	First half integral transformation complete.
	Starting AA second half-transformation.
	Starting AB second half-transformation.
	Starting BB second half-transformation.
	Two-electron integral transformation complete.
	(OV|OV)...
	Starting AA second half-transformation.
	Starting AB second half-transformation.
	Starting BB second half-transformation.
	Two-electron integral transformation complete.
	(OV|VV)...
	Starting AA second half-transformation.
	Starting AB second half-transformation.
	Starting BB second half-transformation.
	Two-electron integral transformation complete.
	(VV|OO)...
	Starting AA/AB first half-transformation.
	Sorting AA/AB half-transformed integrals.
	Starting BB first half-transformation.
	Sorting BB half-transformed integrals.
	First half integral transformation complete.
	Starting AA second half-transformation.
	Starting AB second half-transformation.
	Starting BB second half-transformation.
	Two-electron integral transformation complete.
	(VV|OV)...
	Starting AA second half-transformation.
	Starting AB second half-transformation.
	Starting BB second half-transformation.
	Two-electron integral transformation complete.
	(VV|VV)...
	Starting AA second half-transformation.
	Starting AB second half-transformation.
	Starting BB second half-transformation.
	Two-electron integral transformation complete.
	Frozen core energy     =   -125.45792237252866

	Size of irrep 0 of <AB|CD> integrals:     19.643 (MW) /    157.141 (MB)
	Size of irrep 1 of <AB|CD> integrals:     13.660 (MW) /    109.283 (MB)
	Total:                                    33.303 (MW) /    266.424 (MB)

	Size of irrep 0 of <ab|cd> integrals:     20.794 (MW) /    166.349 (MB)
	Size of irrep 1 of <ab|cd> integrals:     14.631 (MW) /    117.045 (MB)
	Total:                                    35.424 (MW) /    283.394 (MB)

	Size of irrep 0 of <Ab|Cd> integrals:     83.174 (MW) /    665.395 (MB)
	Size of irrep 1 of <Ab|Cd> integrals:     56.550 (MW) /    452.403 (MB)
	Total:                                   139.725 (MW) /   1117.798 (MB)

	Size of irrep 0 of <IA|BC> integrals:      5.323 (MW) /     42.586 (MB)
	Size of irrep 1 of <IA|BC> integrals:      3.193 (MW) /     25.547 (MB)
	Total:                                     8.517 (MW) /     68.133 (MB)

	Size of irrep 0 of <ia|bc> integrals:      4.348 (MW) /     34.780 (MB)
	Size of irrep 1 of <ia|bc> integrals:      2.372 (MW) /     18.972 (MB)
	Total:                                     6.719 (MW) /     53.752 (MB)

	Size of irrep 0 of <Ia|Bc> integrals:      5.472 (MW) /     43.776 (MB)
	Size of irrep 1 of <Ia|Bc> integrals:      3.309 (MW) /     26.470 (MB)
	Total:                                     8.781 (MW) /     70.246 (MB)

	Size of irrep 0 of <iA|bC> integrals:      4.232 (MW) /     33.853 (MB)
	Size of irrep 1 of <iA|bC> integrals:      2.286 (MW) /     18.289 (MB)
	Total:                                     6.518 (MW) /     52.142 (MB)

	Size of irrep 0 of tIjAb amplitudes:       0.292 (MW) /      2.335 (MB)
	Size of irrep 1 of tIjAb amplitudes:       0.120 (MW) /      0.963 (MB)
	Total:                                     0.412 (MW) /      3.297 (MB)

	Nuclear Rep. energy          =     21.92731069349185
	SCF energy                   =   -150.87357810401113
	One-electron energy          =    -83.23757914748407
	Two-electron (AA) energy     =      9.94512683595105
	Two-electron (BB) energy     =      5.29240218868176
	Two-electron (AB) energy     =     20.65708369787497
	Two-electron energy          =     35.89461272250779
	Reference energy             =   -150.87357810401309

*** tstop() called on d2-9.compute.lan at Wed Mar 10 10:53:36 2021
Module time:
	user time   =     271.24 seconds =       4.52 minutes
	system time =      20.66 seconds =       0.34 minutes
	total time  =         44 seconds =       0.73 minutes
Total time:
	user time   =     330.28 seconds =       5.50 minutes
	system time =      24.13 seconds =       0.40 minutes
	total time  =         54 seconds =       0.90 minutes
            **************************
            *                        *
            *        CCENERGY        *
            *                        *
            **************************

    Nuclear Rep. energy (wfn)     =   21.927310693491847
    SCF energy          (wfn)     = -150.873578104011131
    Reference energy    (file100) = -150.873578104013092

    Input parameters:
    -----------------
    Wave function   =     CCSD_T
    Reference wfn   =     UHF
    Brueckner       =     No
    Memory (Mbytes) =     4000.0
    Maxiter         =     50
    R_Convergence   =     1.0e-10
    E_Convergence   =     1.0e-10
    Restart         =     Yes
    DIIS            =     Yes
    AO Basis        =     NONE
    ABCD            =     NEW
    Cache Level     =     2
    Cache Type      =     LRU
    Print Level     =     1
    Num. of threads =     12
    # Amps to Print =     10
    Print MP2 Amps? =     No
    Analyze T2 Amps =     No
    Print Pair Ener =     No
    Local CC        =     No
    SCS-MP2         =     False
    SCSN-MP2        =     False
    SCS-CCSD        =     False

MP2 correlation energy -0.4157270058226425
                Solving CC Amplitude Equations
                ------------------------------
  Iter             Energy              RMS        T1Diag      D1Diag    New D1Diag    D2Diag
  ----     ---------------------    ---------   ----------  ----------  ----------   --------
     0        -0.415727005822643    0.000e+00    0.000000    0.000000    0.000000    0.000000
     1        -0.426581318084430    5.639e-02    0.010363    0.000000    0.000000    0.000000
     2        -0.434671767535071    1.679e-02    0.010864    0.000000    0.000000    0.000000
     3        -0.436770845449588    8.409e-03    0.012680    0.000000    0.000000    0.000000
     4        -0.436646911218526    2.492e-03    0.013024    0.000000    0.000000    0.000000
     5        -0.436634885141658    1.259e-03    0.013166    0.000000    0.000000    0.000000
     6        -0.436660333716720    4.984e-04    0.013180    0.000000    0.000000    0.000000
     7        -0.436664459084891    2.245e-04    0.013170    0.000000    0.000000    0.000000
     8        -0.436665209175570    6.823e-05    0.013164    0.000000    0.000000    0.000000
     9        -0.436666425035808    2.786e-05    0.013163    0.000000    0.000000    0.000000
    10        -0.436665253278823    1.053e-05    0.013163    0.000000    0.000000    0.000000
    11        -0.436665363545802    5.195e-06    0.013163    0.000000    0.000000    0.000000
    12        -0.436665324297107    2.528e-06    0.013163    0.000000    0.000000    0.000000
    13        -0.436665317652015    1.358e-06    0.013163    0.000000    0.000000    0.000000
    14        -0.436665344410865    6.427e-07    0.013163    0.000000    0.000000    0.000000
    15        -0.436665343010146    1.920e-07    0.013163    0.000000    0.000000    0.000000
    16        -0.436665342876091    1.349e-07    0.013163    0.000000    0.000000    0.000000
    17        -0.436665343679159    8.934e-08    0.013163    0.000000    0.000000    0.000000
    18        -0.436665343237442    8.512e-08    0.013163    0.000000    0.000000    0.000000
    19        -0.436665342938262    8.386e-08    0.013163    0.000000    0.000000    0.000000
    20        -0.436665342879805    8.351e-08    0.013163    0.000000    0.000000    0.000000
    21        -0.436665342702889    8.297e-08    0.013163    0.000000    0.000000    0.000000
    22        -0.436665342626973    8.068e-08    0.013163    0.000000    0.000000    0.000000
    23        -0.436665343587241    7.255e-08    0.013163    0.000000    0.000000    0.000000
    24        -0.436665343312581    4.813e-08    0.013163    0.000000    0.000000    0.000000
    25        -0.436665342899768    2.112e-08    0.013163    0.000000    0.000000    0.000000
    26        -0.436665342918423    7.769e-09    0.013163    0.000000    0.000000    0.000000
    27        -0.436665342942131    3.571e-09    0.013163    0.000000    0.000000    0.000000
    28        -0.436665342966580    1.998e-09    0.013163    0.000000    0.000000    0.000000
    29        -0.436665342982482    7.582e-10    0.013163    0.000000    0.000000    0.000000
    30        -0.436665342980344    3.137e-10    0.013163    0.000000    0.000000    0.000000
    31        -0.436665342976553    1.288e-10    0.013163    0.000000    0.000000    0.000000
    32        -0.436665342975950    6.458e-11    0.013163    0.000000    0.000000    0.000000

    Iterations converged.


    Largest TIA Amplitudes:
              7  87        -0.0136869335
              7  84        -0.0121447080
              4   3         0.0098501966
              7  85        -0.0087897771
              2   4        -0.0087362182
              6  84        -0.0083265723
              5  10        -0.0076641750
              5   2         0.0060426027
              4  10        -0.0057630523
              4   7        -0.0054149074

    Largest Tia Amplitudes:
              5  89        -0.0137556330
              5  86        -0.0133465295
              3  11        -0.0088477327
              5  85        -0.0078291253
              3   4         0.0065526279
              4   4        -0.0057951283
              3   3         0.0053489207
              2  37         0.0050965746
              1  20        -0.0050608397
              5 113         0.0042911962

    Largest TIJAB Amplitudes:
      6   2  92  21        -0.0170927695
      6   4  92  20         0.0124867286
      4   2  21  20        -0.0124332243
      6   2 103  39         0.0114927591
      7   3  90  17        -0.0089263997
      6   2 111  54         0.0086536086
      6   2 111  21         0.0085899393
      6   0  92  32         0.0085874727
      5   3  13  10        -0.0085757768
      2   0  32  21        -0.0085467322

    Largest Tijab Amplitudes:
      5   2  92  18        -0.0087363307
      3   2  14  11        -0.0082656452
      4   1 106  85        -0.0078961061
      5   3  93  18         0.0075633563
      4   1  91  85        -0.0075053504
      3   2  16  15        -0.0074832813
      5   2  89  14         0.0074656442
      5   2 100  18         0.0074653382
      5   2  94  14         0.0074379841
      5   2  98  14         0.0071048545

    Largest TIjAb Amplitudes:
      3   2  13  14        -0.0196176140
      4   4  20  21         0.0173693888
      6   4  92  21        -0.0169485874
      2   4  21  21        -0.0167948780
      2   1 103  85         0.0166290719
      6   1  39  85         0.0166278339
      4   1 104  85         0.0165084953
      6   1  92  33        -0.0158144805
      2   1  21  33        -0.0157045029
      2   1  39   2         0.0151407969

    SCF energy       (wfn)                    = -150.873578104011131
    Reference energy (file100)                = -150.873578104013092

    Opposite-spin MP2 correlation energy      =   -0.314146595612114
    Same-spin MP2 correlation energy          =   -0.101580410210529
    MP2 correlation energy                    =   -0.415727005822643
      * MP2 total energy                      = -151.289305109835738

    Opposite-spin CCSD correlation energy     =   -0.341820628641082
    Same-spin CCSD correlation energy         =   -0.094844714334868
    CCSD correlation energy                   =   -0.436665342975950
      * CCSD total energy                     = -151.310243446989034

            **************************
            *                        *
            *        CCTRIPLES       *
            *                        *
            **************************


    Wave function   =    CCSD_T
    Reference wfn   =      UHF

    Nuclear Rep. energy (wfn)                =   21.927310693491847
    SCF energy          (wfn)                = -150.873578104011131
    Reference energy    (file100)            = -150.873578104013092
    CCSD energy         (file100)            =   -0.436665342975950
    Total CCSD energy   (file100)            = -151.310243446989034

    Number of ijk index combinations:
    Spin Case AAA:                                  56
    Spin Case BBB:                                  20
    Spin Case AAB:                                 168
    Spin Case ABB:                                 120
    AAA (T) energy                             =   -0.000392650830272
    BBB (T) energy                             =   -0.000198088225542
    AAB (T) energy                             =   -0.006678505894834
    ABB (T) energy                             =   -0.004949538951200
    (T) energy                                   =   -0.012218783901848
      * CCSD(T) total energy                     = -151.322462230890892

Stephenergy -151.3224622308909
    Psi4 stopped on: Wednesday, 10 March 2021 10:56AM
    Psi4 wall time for execution: 0:03:17.84

*** Psi4 exiting successfully. Buy a developer a beer!
