
    -----------------------------------------------------------------------
          Psi4: An Open-Source Ab Initio Electronic Structure Package
                               Psi4 1.3.2 release

                         Git: Rev {HEAD} ecbda83 


    R. M. Parrish, L. A. Burns, D. G. A. Smith, A. C. Simmonett,
    A. E. DePrince III, E. G. Hohenstein, U. Bozkaya, A. Yu. Sokolov,
    R. Di Remigio, R. M. Richard, J. F. Gonthier, A. M. James,
    H. R. McAlexander, A. Kumar, M. Saitow, X. Wang, B. P. Pritchard,
    P. Verma, H. F. Schaefer III, K. Patkowski, R. A. King, E. F. Valeev,
    F. A. Evangelista, J. M. Turney, T. D. Crawford, and C. D. Sherrill,
    J. Chem. Theory Comput. 13(7) pp 3185--3197 (2017).
    (doi: 10.1021/acs.jctc.7b00174)


                         Additional Contributions by
    P. Kraus, H. Kruse, M. H. Lechner, M. C. Schieber, R. A. Shaw,
    A. Alenaizan, R. Galvelis, Z. L. Glick, S. Lehtola, and J. P. Misiewicz

    -----------------------------------------------------------------------


    Psi4 started on: Tuesday, 09 March 2021 02:23PM

    Process ID: 19825
    Host:       c1-11.compute.lan
    PSIDATADIR: /apps/gb/PSI4/1.3.2/share/psi4
    Memory:     500.0 MiB
    Threads:    12
    
  ==> Input File <==

--------------------------------------------------------------------------
memory 4 GB

molecule  {
0 3
O   -1.643979285178   -0.028695576268    0.000000000000 
H   -0.693070115975   -0.028691629369    0.000000000000          
H   -1.893074137657    0.939303385075    0.000000000000
O    1.806929884025   -0.028681242795    0.000000000000
}
set {
basis aug-cc-pvtz
reference uhf
e_convergence 10
scf_type pk
freeze_core true
}

set ccenergy {
e_convergence 10
r_convergence 10
}

e = energy('ccsd(t)')

print_out('Stephenergy {}'.format(e))

--------------------------------------------------------------------------

  Memory set to   3.725 GiB by Python driver.

*** tstart() called on c1-11.compute.lan
*** at Tue Mar  9 14:23:59 2021

   => Loading Basis Set <=

    Name: AUG-CC-PVTZ
    Role: ORBITAL
    Keyword: BASIS
    atoms 1, 4 entry O          line   327 file /apps/gb/PSI4/1.3.2/share/psi4/basis/aug-cc-pvtz.gbs 
    atoms 2-3  entry H          line    36 file /apps/gb/PSI4/1.3.2/share/psi4/basis/aug-cc-pvtz.gbs 


         ---------------------------------------------------------
                                   SCF
               by Justin Turney, Rob Parrish, Andy Simmonett
                          and Daniel G. A. Smith
                              UHF Reference
                       12 Threads,   3814 MiB Core
         ---------------------------------------------------------

  ==> Geometry <==

    Molecular point group: cs
    Full point group: Cs

    Geometry (in Angstrom), charge = 0, multiplicity = 3:

       Center              X                  Y                   Z               Mass       
    ------------   -----------------  -----------------  -----------------  -----------------
         O           -1.643979285178    -0.028695576268     0.000000000000    15.994914619570
         H           -0.693070115975    -0.028691629369     0.000000000000     1.007825032230
         H           -1.893074137657     0.939303385075     0.000000000000     1.007825032230
         O            1.806929884025    -0.028681242795     0.000000000000    15.994914619570

  Running in cs symmetry.

  Rotational constants: A =     19.11731  B =      0.16928  C =      0.16780 [cm^-1]
  Rotational constants: A = 573122.47000  B =   5074.96798  C =   5030.42385 [MHz]
  Nuclear repulsion =   21.644898538010462

  Charge       = 0
  Multiplicity = 3
  Electrons    = 18
  Nalpha       = 10
  Nbeta        = 8

  ==> Algorithm <==

  SCF Algorithm Type is PK.
  DIIS enabled.
  MOM disabled.
  Fractional occupation disabled.
  Guess Type is SAD.
  Energy threshold   = 1.00e-10
  Density threshold  = 1.00e-08
  Integral threshold = 0.00e+00

  ==> Primary Basis <==

  Basis Set: AUG-CC-PVTZ
    Blend: AUG-CC-PVTZ
    Number of shells: 46
    Number of basis function: 138
    Number of Cartesian functions: 160
    Spherical Harmonics?: true
    Max angular momentum: 3

  ==> Pre-Iterations <==

   -------------------------------------------------------
    Irrep   Nso     Nmo     Nalpha   Nbeta   Ndocc  Nsocc
   -------------------------------------------------------
     A'        92      92       0       0       0       0
     A"        46      46       0       0       0       0
   -------------------------------------------------------
    Total     138     138      10       8       8       2
   -------------------------------------------------------

  ==> Integral Setup <==

  Using in-core PK algorithm.
   Calculation information:
      Number of atoms:                   4
      Number of AO shells:              46
      Number of primitives:             82
      Number of atomic orbitals:       160
      Number of basis functions:       138

      Integral cutoff                 1.00e-12
      Number of threads:                12

  Performing in-core PK
  Using 91996872 doubles for integral storage.
  We computed 880989 shell quartets total.
  Whereas there are 584821 unique shell quartets.
    50.64 percent of shell quartets recomputed by reordering.

  ==> DiskJK: Disk-Based J/K Matrices <==

    J tasked:                  Yes
    K tasked:                  Yes
    wK tasked:                  No
    Memory [MiB]:             2861
    Schwarz Cutoff:          1E-12

    OpenMP threads:             12

  Minimum eigenvalue in the overlap matrix is 3.1996024103E-04.
  Using Symmetric Orthogonalization.

  SCF Guess: Superposition of Atomic Densities via on-the-fly atomic UHF.

  ==> Iterations <==

                        Total Energy        Delta E     RMS |[F,P]|

   @UHF iter SAD:  -149.37027055511140   -1.49370e+02   0.00000e+00 
   @UHF iter   1:  -150.76450633821264   -1.39424e+00   4.97481e-03 DIIS
   @UHF iter   2:  -150.83570150450089   -7.11952e-02   3.27090e-03 DIIS
   @UHF iter   3:  -150.87085902192484   -3.51575e-02   3.91136e-04 DIIS
   @UHF iter   4:  -150.87200063024665   -1.14161e-03   1.31536e-04 DIIS
   @UHF iter   5:  -150.87213542794905   -1.34798e-04   5.16981e-05 DIIS
   @UHF iter   6:  -150.87217048524036   -3.50573e-05   1.49749e-05 DIIS
   @UHF iter   7:  -150.87217368302709   -3.19779e-06   3.92028e-06 DIIS
   @UHF iter   8:  -150.87217396884733   -2.85820e-07   1.80390e-06 DIIS
   @UHF iter   9:  -150.87217407349917   -1.04652e-07   1.56382e-06 DIIS
   @UHF iter  10:  -150.87217416606657   -9.25674e-08   1.54569e-06 DIIS
   @UHF iter  11:  -150.87217437578437   -2.09718e-07   1.52543e-06 DIIS
   @UHF iter  12:  -150.87217565586758   -1.28008e-06   1.41875e-06 DIIS
   @UHF iter  13:  -150.87217775275212   -2.09688e-06   1.25306e-06 DIIS
   @UHF iter  14:  -150.87218005009925   -2.29735e-06   1.09256e-06 DIIS
   @UHF iter  15:  -150.87218060107531   -5.50976e-07   7.76137e-07 DIIS
   @UHF iter  16:  -150.87218229954905   -1.69847e-06   2.37974e-06 DIIS
   @UHF iter  17:  -150.87218231689766   -1.73486e-08   1.51165e-06 DIIS
   @UHF iter  18:  -150.87218234140695   -2.45093e-08   6.97212e-07 DIIS
   @UHF iter  19:  -150.87218234402954   -2.62258e-09   6.29438e-08 DIIS
   @UHF iter  20:  -150.87218234406316   -3.36229e-11   9.80355e-08 DIIS
   @UHF iter  21:  -150.87218234411003   -4.68674e-11   5.11721e-09 DIIS
  Energy and wave function converged.


  ==> Post-Iterations <==

   @Spin Contamination Metric:   9.382746346E-03
   @S^2 Expected:                2.000000000E+00
   @S^2 Observed:                2.009382746E+00
   @S   Expected:                1.000000000E+00
   @S   Observed:                1.000000000E+00

    Orbital Energies [Eh]
    ---------------------

    Alpha Occupied:                                                       

       1Ap   -20.730024     2Ap   -20.563954     3Ap    -1.438819  
       4Ap    -1.339277     5Ap    -0.729759     1App   -0.729680  
       6Ap    -0.703503     7Ap    -0.631762     8Ap    -0.575349  
       2App   -0.503304  

    Alpha Virtual:                                                        

       9Ap     0.033719    10Ap     0.053436    11Ap     0.129030  
       3App    0.132802    12Ap     0.147001    13Ap     0.159672  
      14Ap     0.181736     4App    0.183218    15Ap     0.206835  
      16Ap     0.235151    17Ap     0.266615     5App    0.279820  
      18Ap     0.288598     6App    0.318824    19Ap     0.363681  
      20Ap     0.385451    21Ap     0.448033    22Ap     0.554531  
       7App    0.604047    23Ap     0.608444    24Ap     0.641873  
      25Ap     0.665751     8App    0.685015    26Ap     0.711734  
       9App    0.734107    10App    0.746633    27Ap     0.753715  
      28Ap     0.788606    11App    0.825044    29Ap     0.834043  
      30Ap     0.853713    12App    0.874242    31Ap     0.913919  
      32Ap     0.921375    13App    0.939950    33Ap     0.947857  
      14App    0.967418    34Ap     0.975769    35Ap     1.025901  
      36Ap     1.082456    15App    1.157829    37Ap     1.167168  
      16App    1.209243    38Ap     1.223222    39Ap     1.254887  
      40Ap     1.283416    17App    1.512576    41Ap     1.531675  
      18App    1.585953    42Ap     1.598787    43Ap     1.793110  
      44Ap     1.815941    45Ap     1.970002    19App    1.979298  
      46Ap     1.979364    20App    2.009458    47Ap     2.012400  
      21App    2.033799    48Ap     2.035919    22App    2.086762  
      49Ap     2.115933    50Ap     2.133404    23App    2.159874  
      51Ap     2.227404    24App    2.278524    52Ap     2.331043  
      53Ap     2.369759    25App    2.423906    54Ap     2.427492  
      26App    2.456526    55Ap     2.482725    56Ap     2.548386  
      57Ap     2.682009    27App    2.723712    58Ap     2.727422  
      59Ap     2.843617    60Ap     2.915337    28App    2.919542  
      61Ap     3.637268    62Ap     3.810662    29App    4.014275  
      30App    4.051767    63Ap     4.066781    31App    4.132110  
      64Ap     4.176515    65Ap     4.246239    32App    4.291767  
      66Ap     4.359930    33App    4.381262    34App    4.417345  
      67Ap     4.425971    68Ap     4.546758    69Ap     4.728232  
      70Ap     4.890296    35App    5.107196    71Ap     5.122490  
      72Ap     5.271947    73Ap     5.355137    36App    5.496226  
      74Ap     5.670858    75Ap     6.172507    37App    6.314793  
      76Ap     6.314816    38App    6.366589    77Ap     6.367805  
      39App    6.462578    78Ap     6.475867    79Ap     6.540611  
      80Ap     6.594005    40App    6.713205    81Ap     6.813677  
      41App    6.818763    82Ap     6.887230    42App    6.924667  
      83Ap     6.948915    84Ap     7.038761    43App    7.108711  
      44App    7.241927    85Ap     7.289091    45App    7.322717  
      86Ap     7.351857    46App    7.409119    87Ap     7.618797  
      88Ap     7.886551    89Ap     7.945997    90Ap     8.730120  
      91Ap     8.947195    92Ap    16.026148  

    Beta Occupied:                                                        

       1Ap   -20.651289     2Ap   -20.564020     3Ap    -1.339544  
       4Ap    -1.096278     5Ap    -0.703268     6Ap    -0.577736  
       7Ap    -0.539845     1App   -0.503335  

    Beta Virtual:                                                         

       8Ap     0.033663     9Ap     0.047773     2App    0.050586  
      10Ap     0.058906    11Ap     0.142839    12Ap     0.151688  
       3App    0.160344    13Ap     0.178312    14Ap     0.207054  
      15Ap     0.217703     4App    0.226946    16Ap     0.243786  
      17Ap     0.269443     5App    0.279987    18Ap     0.291363  
       6App    0.320216    19Ap     0.367009    20Ap     0.392114  
      21Ap     0.448522    22Ap     0.556597     7App    0.636975  
      23Ap     0.638075    24Ap     0.645929    25Ap     0.669005  
       8App    0.699040    26Ap     0.712378     9App    0.734897  
      10App    0.747608    27Ap     0.767012    28Ap     0.800291  
      29Ap     0.841108    11App    0.858245    30Ap     0.911619  
      31Ap     0.923732    12App    0.925731    32Ap     0.944467  
      13App    0.946497    33Ap     0.967648    34Ap     1.006147  
      14App    1.021554    35Ap     1.029177    36Ap     1.090627  
      15App    1.161820    37Ap     1.170258    16App    1.217145  
      38Ap     1.256737    39Ap     1.271495    40Ap     1.288451  
      17App    1.513091    41Ap     1.549736    18App    1.587138  
      42Ap     1.622334    43Ap     1.795912    44Ap     1.817698  
      45Ap     1.973091    19App    2.017467    46Ap     2.017513  
      20App    2.037748    47Ap     2.041025    21App    2.120478  
      48Ap     2.157862    49Ap     2.166133    22App    2.179426  
      50Ap     2.180368    23App    2.212778    51Ap     2.269993  
      24App    2.279876    52Ap     2.344827    53Ap     2.384445  
      25App    2.427168    54Ap     2.429338    26App    2.464148  
      55Ap     2.489659    56Ap     2.553799    57Ap     2.688572  
      27App    2.724188    58Ap     2.727904    59Ap     2.847857  
      60Ap     2.917180    28App    2.920135    61Ap     3.637434  
      62Ap     3.811701    29App    4.014524    30App    4.115694  
      63Ap     4.165217    64Ap     4.238283    31App    4.238397  
      65Ap     4.256472    32App    4.291877    66Ap     4.380325  
      33App    4.381463    34App    4.419048    67Ap     4.452717  
      68Ap     4.547764    69Ap     4.729125    70Ap     4.890993  
      35App    5.107198    71Ap     5.122743    72Ap     5.272134  
      73Ap     5.356129    36App    5.496230    74Ap     5.671212  
      75Ap     6.173315    37App    6.423745    76Ap     6.423762  
      38App    6.442711    77Ap     6.444181    78Ap     6.518073  
      39App    6.518491    79Ap     6.554425    80Ap     6.640766  
      40App    6.715603    81Ap     6.885266    41App    7.006180  
      82Ap     7.006652    42App    7.034350    83Ap     7.058505  
      43App    7.110328    84Ap     7.122050    44App    7.242109  
      85Ap     7.289364    45App    7.323394    86Ap     7.352062  
      46App    7.409645    87Ap     7.621300    88Ap     7.886691  
      89Ap     7.946675    90Ap     8.730665    91Ap     9.024276  
      92Ap    16.026495  

    Final Occupation by Irrep:
             Ap   App 
    DOCC [     7,    1 ]
    SOCC [     1,    1 ]

  @UHF Final Energy:  -150.87218234411003

   => Energetics <=

    Nuclear Repulsion Energy =             21.6448985380104624
    One-Electron Energy =                -251.1134183949744454
    Two-Electron Energy =                  78.5963375128539496
    Total Energy =                       -150.8721823441100298

  UHF NO Occupations:
  HONO-2 :    7 Ap 1.9970426
  HONO-1 :    8 Ap 1.0000000
  HONO-0 :    2App 1.0000000
  LUNO+0 :    9 Ap 0.0029574
  LUNO+1 :   10 Ap 0.0017368
  LUNO+2 :   11 Ap 0.0000024
  LUNO+3 :   12 Ap 0.0000005


Computation Completed


Properties will be evaluated at   0.000000,   0.000000,   0.000000 [a0]

Properties computed using the SCF density matrix

  Nuclear Dipole Moment: [e a0]
     X:    -2.4236      Y:     0.8534      Z:     0.0000

  Electronic Dipole Moment: [e a0]
     X:     2.9573      Y:    -0.2290      Z:     0.0000

  Dipole Moment: [e a0]
     X:     0.5336      Y:     0.6244      Z:     0.0000     Total:     0.8213

  Dipole Moment: [D]
     X:     1.3564      Y:     1.5869      Z:     0.0000     Total:     2.0876


*** tstop() called on c1-11.compute.lan at Tue Mar  9 14:24:05 2021
Module time:
	user time   =      62.47 seconds =       1.04 minutes
	system time =       3.28 seconds =       0.05 minutes
	total time  =          6 seconds =       0.10 minutes
Total time:
	user time   =      62.47 seconds =       1.04 minutes
	system time =       3.28 seconds =       0.05 minutes
	total time  =          6 seconds =       0.10 minutes
 MINTS: Wrapper to libmints.
   by Justin Turney

   Calculation information:
      Number of threads:                12
      Number of atoms:                   4
      Number of AO shells:              46
      Number of SO shells:              46
      Number of primitives:             82
      Number of atomic orbitals:       160
      Number of basis functions:       138

      Number of irreps:                  2
      Integral cutoff                 0.00e+00
      Number of functions per irrep: [  92   46 ]

 OEINTS: Overlap, kinetic, potential, dipole, and quadrupole integrals
         stored in file 35.

      Computing two-electron integrals...done
      Computed 22945740 non-zero two-electron integrals.
        Stored in file 33.


*** tstart() called on c1-11.compute.lan
*** at Tue Mar  9 14:24:08 2021


	Wfn Parameters:
	--------------------
	Wavefunction         = CCSD_T
	Number of irreps     = 2
	Number of MOs        = 138
	Number of active MOs = 136
	AO-Basis             = NONE
	Semicanonical        = false
	Reference            = UHF
	Print Level          = 1

	IRREP	# MOs	# FZDC	# DOCC	# SOCC	# VIRT	# FZVR
	-----	-----	------	------	------	------	------
	 Ap	   92	    2	    5	    1	    84	    0
	 App	   46	    0	    1	    1	    44	    0
	Transforming integrals...
	IWL integrals will be deleted.
	(OO|OO)...
	Presorting SO-basis two-electron integrals.
	Sorting File: SO Ints (nn|nn) nbuckets = 1
	Transforming the one-electron integrals and constructing Fock matrices
	Starting AA/AB first half-transformation.
	Sorting AA/AB half-transformed integrals.
	Starting BB first half-transformation.
	Sorting BB half-transformed integrals.
	First half integral transformation complete.
	Starting AA second half-transformation.
	Starting AB second half-transformation.
	Starting BB second half-transformation.
	Two-electron integral transformation complete.
	(OO|OV)...
	Starting AA second half-transformation.
	Starting AB second half-transformation.
	Starting BB second half-transformation.
	Two-electron integral transformation complete.
	(OO|VV)...
	Starting AA second half-transformation.
	Starting AB second half-transformation.
	Starting BB second half-transformation.
	Two-electron integral transformation complete.
	(OV|OO)...
	Starting AA/AB first half-transformation.
	Sorting AA/AB half-transformed integrals.
	Starting BB first half-transformation.
	Sorting BB half-transformed integrals.
	First half integral transformation complete.
	Starting AA second half-transformation.
	Starting AB second half-transformation.
	Starting BB second half-transformation.
	Two-electron integral transformation complete.
	(OV|OV)...
	Starting AA second half-transformation.
	Starting AB second half-transformation.
	Starting BB second half-transformation.
	Two-electron integral transformation complete.
	(OV|VV)...
	Starting AA second half-transformation.
	Starting AB second half-transformation.
	Starting BB second half-transformation.
	Two-electron integral transformation complete.
	(VV|OO)...
	Starting AA/AB first half-transformation.
	Sorting AA/AB half-transformed integrals.
	Starting BB first half-transformation.
	Sorting BB half-transformed integrals.
	First half integral transformation complete.
	Starting AA second half-transformation.
	Starting AB second half-transformation.
	Starting BB second half-transformation.
	Two-electron integral transformation complete.
	(VV|OV)...
	Starting AA second half-transformation.
	Starting AB second half-transformation.
	Starting BB second half-transformation.
	Two-electron integral transformation complete.
	(VV|VV)...
	Starting AA second half-transformation.
	Starting AB second half-transformation.
	Starting BB second half-transformation.
	Two-electron integral transformation complete.
	Frozen core energy     =   -125.37654191797007

	Size of irrep 0 of <AB|CD> integrals:     19.643 (MW) /    157.141 (MB)
	Size of irrep 1 of <AB|CD> integrals:     13.660 (MW) /    109.283 (MB)
	Total:                                    33.303 (MW) /    266.424 (MB)

	Size of irrep 0 of <ab|cd> integrals:     20.794 (MW) /    166.349 (MB)
	Size of irrep 1 of <ab|cd> integrals:     14.631 (MW) /    117.045 (MB)
	Total:                                    35.424 (MW) /    283.394 (MB)

	Size of irrep 0 of <Ab|Cd> integrals:     83.174 (MW) /    665.395 (MB)
	Size of irrep 1 of <Ab|Cd> integrals:     56.550 (MW) /    452.403 (MB)
	Total:                                   139.725 (MW) /   1117.798 (MB)

	Size of irrep 0 of <IA|BC> integrals:      5.323 (MW) /     42.586 (MB)
	Size of irrep 1 of <IA|BC> integrals:      3.193 (MW) /     25.547 (MB)
	Total:                                     8.517 (MW) /     68.133 (MB)

	Size of irrep 0 of <ia|bc> integrals:      4.348 (MW) /     34.780 (MB)
	Size of irrep 1 of <ia|bc> integrals:      2.372 (MW) /     18.972 (MB)
	Total:                                     6.719 (MW) /     53.752 (MB)

	Size of irrep 0 of <Ia|Bc> integrals:      5.472 (MW) /     43.776 (MB)
	Size of irrep 1 of <Ia|Bc> integrals:      3.309 (MW) /     26.470 (MB)
	Total:                                     8.781 (MW) /     70.246 (MB)

	Size of irrep 0 of <iA|bC> integrals:      4.232 (MW) /     33.853 (MB)
	Size of irrep 1 of <iA|bC> integrals:      2.286 (MW) /     18.289 (MB)
	Total:                                     6.518 (MW) /     52.142 (MB)

	Size of irrep 0 of tIjAb amplitudes:       0.292 (MW) /      2.335 (MB)
	Size of irrep 1 of tIjAb amplitudes:       0.120 (MW) /      0.963 (MB)
	Total:                                     0.412 (MW) /      3.297 (MB)

	Nuclear Rep. energy          =     21.64489853801046
	SCF energy                   =   -150.87218234411003
	One-electron energy          =    -82.86962388962328
	Two-electron (AA) energy     =      9.89934592519586
	Two-electron (BB) energy     =      5.26345872965780
	Two-electron (AB) energy     =     20.56628027061862
	Two-electron energy          =     35.72908492547228
	Reference energy             =   -150.87218234411063

*** tstop() called on c1-11.compute.lan at Tue Mar  9 14:24:49 2021
Module time:
	user time   =     105.91 seconds =       1.77 minutes
	system time =      26.09 seconds =       0.43 minutes
	total time  =         41 seconds =       0.68 minutes
Total time:
	user time   =     174.51 seconds =       2.91 minutes
	system time =      30.17 seconds =       0.50 minutes
	total time  =         50 seconds =       0.83 minutes
            **************************
            *                        *
            *        CCENERGY        *
            *                        *
            **************************

    Nuclear Rep. energy (wfn)     =   21.644898538010462
    SCF energy          (wfn)     = -150.872182344110030
    Reference energy    (file100) = -150.872182344110627

    Input parameters:
    -----------------
    Wave function   =     CCSD_T
    Reference wfn   =     UHF
    Brueckner       =     No
    Memory (Mbytes) =     4000.0
    Maxiter         =     50
    R_Convergence   =     1.0e-10
    E_Convergence   =     1.0e-10
    Restart         =     Yes
    DIIS            =     Yes
    AO Basis        =     NONE
    ABCD            =     NEW
    Cache Level     =     2
    Cache Type      =     LRU
    Print Level     =     1
    Num. of threads =     12
    # Amps to Print =     10
    Print MP2 Amps? =     No
    Analyze T2 Amps =     No
    Print Pair Ener =     No
    Local CC        =     No
    SCS-MP2         =     False
    SCSN-MP2        =     False
    SCS-CCSD        =     False

MP2 correlation energy -0.4170488715316829
                Solving CC Amplitude Equations
                ------------------------------
  Iter             Energy              RMS        T1Diag      D1Diag    New D1Diag    D2Diag
  ----     ---------------------    ---------   ----------  ----------  ----------   --------
     0        -0.417048871531683    0.000e+00    0.000000    0.000000    0.000000    0.000000
     1        -0.427539370626993    5.748e-02    0.010609    0.000000    0.000000    0.000000
     2        -0.435759518865778    1.719e-02    0.011070    0.000000    0.000000    0.000000
     3        -0.437936455615759    8.644e-03    0.012945    0.000000    0.000000    0.000000
     4        -0.437810524386927    2.542e-03    0.013299    0.000000    0.000000    0.000000
     5        -0.437798693771107    1.281e-03    0.013446    0.000000    0.000000    0.000000
     6        -0.437824456746921    5.068e-04    0.013461    0.000000    0.000000    0.000000
     7        -0.437828451596932    2.275e-04    0.013450    0.000000    0.000000    0.000000
     8        -0.437829320013391    7.700e-05    0.013444    0.000000    0.000000    0.000000
     9        -0.437830562380928    4.532e-05    0.013444    0.000000    0.000000    0.000000
    10        -0.437829366317161    3.681e-05    0.013444    0.000000    0.000000    0.000000
    11        -0.437829476277086    3.538e-05    0.013444    0.000000    0.000000    0.000000
    12        -0.437829340720429    3.480e-05    0.013444    0.000000    0.000000    0.000000
    13        -0.437829252299491    3.437e-05    0.013446    0.000000    0.000000    0.000000
    14        -0.437829671437555    3.345e-05    0.013451    0.000000    0.000000    0.000000
    15        -0.437829690302696    3.104e-05    0.013465    0.000000    0.000000    0.000000
    16        -0.437829686533919    2.577e-05    0.013542    0.000000    0.000000    0.000000
    17        -0.437829693819633    1.508e-05    0.013595    0.000000    0.000000    0.000000
    18        -0.437829625061638    6.527e-06    0.013619    0.000000    0.000000    0.000000
    19        -0.437829769861724    2.935e-06    0.013624    0.000000    0.000000    0.000000
    20        -0.437829849440491    1.376e-06    0.013625    0.000000    0.000000    0.000000
    21        -0.437829854866446    5.824e-07    0.013626    0.000000    0.000000    0.000000
    22        -0.437829855413525    2.323e-07    0.013626    0.000000    0.000000    0.000000
    23        -0.437829856202053    9.961e-08    0.013626    0.000000    0.000000    0.000000
    24        -0.437829856153607    4.236e-08    0.013626    0.000000    0.000000    0.000000
    25        -0.437829856825314    2.246e-08    0.013626    0.000000    0.000000    0.000000
    26        -0.437829857235047    8.149e-09    0.013626    0.000000    0.000000    0.000000
    27        -0.437829857309291    3.389e-09    0.013626    0.000000    0.000000    0.000000
    28        -0.437829857333798    2.455e-09    0.013626    0.000000    0.000000    0.000000
    29        -0.437829857335465    2.216e-09    0.013626    0.000000    0.000000    0.000000
    30        -0.437829857321579    2.055e-09    0.013626    0.000000    0.000000    0.000000
    31        -0.437829857303615    1.903e-09    0.013626    0.000000    0.000000    0.000000
    32        -0.437829857292492    1.727e-09    0.013626    0.000000    0.000000    0.000000
    33        -0.437829857291942    1.395e-09    0.013626    0.000000    0.000000    0.000000
    34        -0.437829857296321    7.998e-10    0.013626    0.000000    0.000000    0.000000
    35        -0.437829857299454    3.575e-10    0.013626    0.000000    0.000000    0.000000
    36        -0.437829857300067    1.378e-10    0.013626    0.000000    0.000000    0.000000
    37        -0.437829857298776    5.223e-11    0.013626    0.000000    0.000000    0.000000

    Iterations converged.


    Largest TIA Amplitudes:
              7  87        -0.0127586346
              7  84        -0.0118338518
              7  85        -0.0099180369
              4   3         0.0093764325
              6  84        -0.0081183778
              5   2         0.0070506059
              2   2        -0.0066098486
              5   9        -0.0063601018
              4  10        -0.0061876981
              2   4         0.0061621480

    Largest Tia Amplitudes:
              5  86        -0.0137691009
              5  89        -0.0126884735
              3   3         0.0086353742
              5  85        -0.0072545064
              3  11        -0.0067365766
              4   1        -0.0063384362
              3  10        -0.0060694148
              1  20         0.0058934260
              4   4        -0.0056953132
              5  88        -0.0054413129

    Largest TIJAB Amplitudes:
      6   2  92  21        -0.0144838029
      6   2 102  39        -0.0113354057
      6   2  93  21         0.0082654926
      4   2  21  20         0.0081786448
      6   2 111  54        -0.0079925698
      6   2 111  21         0.0079590637
      4   2  21   3        -0.0079089573
      7   5  90  17        -0.0076727024
      4   2  29  21        -0.0075980886
      6   2  84  21        -0.0073706687

    Largest Tijab Amplitudes:
      4   1  91  85        -0.0079913997
      5   3  92  18        -0.0077392804
      4   1 106  85        -0.0074368065
      5   3  89  11        -0.0064891212
      5   2  93  17        -0.0063367809
      4   1 106  87        -0.0059756549
      4   1  91  87        -0.0059277177
      3   2  17  16        -0.0057882779
      5   2  89  13         0.0056539866
      5   2  86  13         0.0055983603

    Largest TIjAb Amplitudes:
      3   2  12  13        -0.0192444001
      2   1 102  85        -0.0174163879
      6   1  39  85         0.0169202085
      2   1  88  85        -0.0145119619
      2   1 102  87        -0.0139167217
      6   1 102   1         0.0137972007
      6   1  14  85         0.0136793073
      5   3  10  11        -0.0135289185
      6   1  39  87         0.0135173833
      4   1  89  85         0.0131171318

    SCF energy       (wfn)                    = -150.872182344110030
    Reference energy (file100)                = -150.872182344110627

    Opposite-spin MP2 correlation energy      =   -0.315136682661948
    Same-spin MP2 correlation energy          =   -0.101912188869734
    MP2 correlation energy                    =   -0.417048871531683
      * MP2 total energy                      = -151.289231215642303

    Opposite-spin CCSD correlation energy     =   -0.342842274081179
    Same-spin CCSD correlation energy         =   -0.094987583217597
    CCSD correlation energy                   =   -0.437829857298776
      * CCSD total energy                     = -151.310012201409393

            **************************
            *                        *
            *        CCTRIPLES       *
            *                        *
            **************************


    Wave function   =    CCSD_T
    Reference wfn   =      UHF

    Nuclear Rep. energy (wfn)                =   21.644898538010462
    SCF energy          (wfn)                = -150.872182344110030
    Reference energy    (file100)            = -150.872182344110627
    CCSD energy         (file100)            =   -0.437829857298776
    Total CCSD energy   (file100)            = -151.310012201409393

    Number of ijk index combinations:
    Spin Case AAA:                                  56
    Spin Case BBB:                                  20
    Spin Case AAB:                                 168
    Spin Case ABB:                                 120
    AAA (T) energy                             =   -0.000395390261625
    BBB (T) energy                             =   -0.000200742139788
    AAB (T) energy                             =   -0.006764800618471
    ABB (T) energy                             =   -0.005033830664537
    (T) energy                                   =   -0.012394763684420
      * CCSD(T) total energy                     = -151.322406965093819

Stephenergy -151.32240696509382
    Psi4 stopped on: Tuesday, 09 March 2021 02:27PM
    Psi4 wall time for execution: 0:04:00.70

*** Psi4 exiting successfully. Buy a developer a beer!
