
    -----------------------------------------------------------------------
          Psi4: An Open-Source Ab Initio Electronic Structure Package
                               Psi4 1.3.2 release

                         Git: Rev {HEAD} ecbda83 


    R. M. Parrish, L. A. Burns, D. G. A. Smith, A. C. Simmonett,
    A. E. DePrince III, E. G. Hohenstein, U. Bozkaya, A. Yu. Sokolov,
    R. Di Remigio, R. M. Richard, J. F. Gonthier, A. M. James,
    H. R. McAlexander, A. Kumar, M. Saitow, X. Wang, B. P. Pritchard,
    P. Verma, H. F. Schaefer III, K. Patkowski, R. A. King, E. F. Valeev,
    F. A. Evangelista, J. M. Turney, T. D. Crawford, and C. D. Sherrill,
    J. Chem. Theory Comput. 13(7) pp 3185--3197 (2017).
    (doi: 10.1021/acs.jctc.7b00174)


                         Additional Contributions by
    P. Kraus, H. Kruse, M. H. Lechner, M. C. Schieber, R. A. Shaw,
    A. Alenaizan, R. Galvelis, Z. L. Glick, S. Lehtola, and J. P. Misiewicz

    -----------------------------------------------------------------------


    Psi4 started on: Wednesday, 10 March 2021 10:57AM

    Process ID: 25868
    Host:       b1-18.compute.lan
    PSIDATADIR: /apps/gb/PSI4/1.3.2/share/psi4
    Memory:     500.0 MiB
    Threads:    12
    
  ==> Input File <==

--------------------------------------------------------------------------
memory 4 GB

molecule  {
0 3
O   -1.504262781504   -0.001404642696    0.000000000000
H   -0.554288693418    0.155662350971    0.000000000000
H   -1.893724612808    0.880580173539    0.000000000000
O    1.658509874904   -0.063888056921    0.000000000000
}
set {
basis aug-cc-pvtz
reference uhf
e_convergence 10
scf_type pk
freeze_core true
}

set ccenergy {
e_convergence 10
r_convergence 10
}

e = energy('ccsd(t)')

print_out('Stephenergy {}'.format(e))

--------------------------------------------------------------------------

  Memory set to   3.725 GiB by Python driver.

*** tstart() called on b1-18.compute.lan
*** at Wed Mar 10 10:57:41 2021

   => Loading Basis Set <=

    Name: AUG-CC-PVTZ
    Role: ORBITAL
    Keyword: BASIS
    atoms 1, 4 entry O          line   327 file /apps/gb/PSI4/1.3.2/share/psi4/basis/aug-cc-pvtz.gbs 
    atoms 2-3  entry H          line    36 file /apps/gb/PSI4/1.3.2/share/psi4/basis/aug-cc-pvtz.gbs 


         ---------------------------------------------------------
                                   SCF
               by Justin Turney, Rob Parrish, Andy Simmonett
                          and Daniel G. A. Smith
                              UHF Reference
                       12 Threads,   3814 MiB Core
         ---------------------------------------------------------

  ==> Geometry <==

    Molecular point group: cs
    Full point group: Cs

    Geometry (in Angstrom), charge = 0, multiplicity = 3:

       Center              X                  Y                   Z               Mass       
    ------------   -----------------  -----------------  -----------------  -----------------
         O           -1.504262781504    -0.001404642696     0.000000000000    15.994914619570
         H           -0.554288693418     0.155662350971     0.000000000000     1.007825032230
         H           -1.893724612808     0.880580173539     0.000000000000     1.007825032230
         O            1.658509874904    -0.063888056921     0.000000000000    15.994914619570

  Running in cs symmetry.

  Rotational constants: A =     23.08476  B =      0.20008  C =      0.19836 [cm^-1]
  Rotational constants: A = 692063.58056  B =   5998.22488  C =   5946.68402 [MHz]
  Nuclear repulsion =   22.896538409661051

  Charge       = 0
  Multiplicity = 3
  Electrons    = 18
  Nalpha       = 10
  Nbeta        = 8

  ==> Algorithm <==

  SCF Algorithm Type is PK.
  DIIS enabled.
  MOM disabled.
  Fractional occupation disabled.
  Guess Type is SAD.
  Energy threshold   = 1.00e-10
  Density threshold  = 1.00e-08
  Integral threshold = 0.00e+00

  ==> Primary Basis <==

  Basis Set: AUG-CC-PVTZ
    Blend: AUG-CC-PVTZ
    Number of shells: 46
    Number of basis function: 138
    Number of Cartesian functions: 160
    Spherical Harmonics?: true
    Max angular momentum: 3

  ==> Pre-Iterations <==

   -------------------------------------------------------
    Irrep   Nso     Nmo     Nalpha   Nbeta   Ndocc  Nsocc
   -------------------------------------------------------
     A'        92      92       0       0       0       0
     A"        46      46       0       0       0       0
   -------------------------------------------------------
    Total     138     138      10       8       8       2
   -------------------------------------------------------

  ==> Integral Setup <==

  Using in-core PK algorithm.
   Calculation information:
      Number of atoms:                   4
      Number of AO shells:              46
      Number of primitives:             82
      Number of atomic orbitals:       160
      Number of basis functions:       138

      Integral cutoff                 1.00e-12
      Number of threads:                12

  Performing in-core PK
  Using 91996872 doubles for integral storage.
  We computed 901901 shell quartets total.
  Whereas there are 584821 unique shell quartets.
    54.22 percent of shell quartets recomputed by reordering.

  ==> DiskJK: Disk-Based J/K Matrices <==

    J tasked:                  Yes
    K tasked:                  Yes
    wK tasked:                  No
    Memory [MiB]:             2861
    Schwarz Cutoff:          1E-12

    OpenMP threads:             12

  Minimum eigenvalue in the overlap matrix is 2.9533346910E-04.
  Using Symmetric Orthogonalization.

  SCF Guess: Superposition of Atomic Densities via on-the-fly atomic UHF.

  ==> Iterations <==

                        Total Energy        Delta E     RMS |[F,P]|

   @UHF iter SAD:  -149.39939817888040   -1.49399e+02   0.00000e+00 
   @UHF iter   1:  -150.76356860723962   -1.36417e+00   5.04804e-03 DIIS
   @UHF iter   2:  -150.83774757955214   -7.41790e-02   3.28283e-03 DIIS
   @UHF iter   3:  -150.87300547324577   -3.52579e-02   3.93494e-04 DIIS
   @UHF iter   4:  -150.87412298344975   -1.11751e-03   1.30926e-04 DIIS
   @UHF iter   5:  -150.87425064809989   -1.27665e-04   5.12611e-05 DIIS
   @UHF iter   6:  -150.87428505839569   -3.44103e-05   1.54550e-05 DIIS
   @UHF iter   7:  -150.87428891432890   -3.85593e-06   5.62930e-06 DIIS
   @UHF iter   8:  -150.87428979584786   -8.81519e-07   4.49030e-06 DIIS
   @UHF iter   9:  -150.87429055123781   -7.55390e-07   4.37441e-06 DIIS
   @UHF iter  10:  -150.87429171472405   -1.16349e-06   4.31571e-06 DIIS
   @UHF iter  11:  -150.87429843851521   -6.72379e-06   4.02765e-06 DIIS
   @UHF iter  12:  -150.87431575737460   -1.73189e-05   3.78355e-06 DIIS
   @UHF iter  13:  -150.87431746325211   -1.70588e-06   3.31743e-06 DIIS
   @UHF iter  14:  -150.87433502428189   -1.75610e-05   8.42419e-06 DIIS
   @UHF iter  15:  -150.87433495393606    7.03458e-08   6.28190e-06 DIIS
   @UHF iter  16:  -150.87433667131117   -1.71738e-06   6.32925e-06 DIIS
   @UHF iter  17:  -150.87433688989302   -2.18582e-07   2.73740e-06 DIIS
   @UHF iter  18:  -150.87433697140659   -8.15136e-08   1.19330e-06 DIIS
   @UHF iter  19:  -150.87433698315112   -1.17445e-08   1.10513e-07 DIIS
   @UHF iter  20:  -150.87433698308686    6.42615e-11   1.62421e-07 DIIS
   @UHF iter  21:  -150.87433698322923   -1.42364e-10   5.26310e-09 DIIS
   @UHF iter  22:  -150.87433698323110   -1.87583e-12   9.75210e-10 DIIS
  Energy and wave function converged.


  ==> Post-Iterations <==

   @Spin Contamination Metric:   9.373213538E-03
   @S^2 Expected:                2.000000000E+00
   @S^2 Observed:                2.009373214E+00
   @S   Expected:                1.000000000E+00
   @S   Observed:                1.000000000E+00

    Orbital Energies [Eh]
    ---------------------

    Alpha Occupied:                                                       

       1Ap   -20.733046     2Ap   -20.559043     3Ap    -1.442378  
       4Ap    -1.342272     5Ap    -0.733141     1App   -0.732773  
       6Ap    -0.709394     7Ap    -0.634384     8Ap    -0.574848  
       2App   -0.501812  

    Alpha Virtual:                                                        

       9Ap     0.034182    10Ap     0.053484    11Ap     0.128196  
       3App    0.132952    12Ap     0.148110    13Ap     0.160699  
      14Ap     0.183916     4App    0.186860    15Ap     0.214162  
      16Ap     0.241959    17Ap     0.264213     5App    0.286323  
      18Ap     0.303707     6App    0.320655    19Ap     0.364497  
      20Ap     0.406099    21Ap     0.459927    22Ap     0.568524  
       7App    0.602630    23Ap     0.608786    24Ap     0.627052  
      25Ap     0.681750     8App    0.709551    26Ap     0.714564  
       9App    0.736714    10App    0.748791    27Ap     0.751136  
      28Ap     0.811633    11App    0.825959    29Ap     0.836922  
      12App    0.890905    30Ap     0.891407    31Ap     0.923034  
      32Ap     0.944940    13App    0.947565    33Ap     0.951300  
      14App    0.971569    34Ap     0.978594    35Ap     1.042281  
      36Ap     1.135753    15App    1.153687    37Ap     1.169480  
      38Ap     1.185218    39Ap     1.260782    16App    1.294669  
      40Ap     1.317045    17App    1.526641    41Ap     1.586632  
      18App    1.597209    42Ap     1.715371    43Ap     1.810113  
      44Ap     1.841791    45Ap     1.976372    19App    1.977744  
      46Ap     1.977831    20App    2.013231    47Ap     2.017868  
      21App    2.048497    48Ap     2.059942    22App    2.122644  
      49Ap     2.152754    50Ap     2.175993    23App    2.212631  
      24App    2.302279    51Ap     2.312344    52Ap     2.338127  
      53Ap     2.415119    25App    2.441472    54Ap     2.457571  
      55Ap     2.491327    26App    2.526971    56Ap     2.630050  
      57Ap     2.709705    27App    2.727519    58Ap     2.736315  
      59Ap     2.858816    60Ap     2.933290    28App    2.942346  
      61Ap     3.692782    62Ap     3.890743    29App    4.035221  
      30App    4.062537    63Ap     4.074080    31App    4.176669  
      64Ap     4.207233    65Ap     4.263359    32App    4.300525  
      33App    4.390345    66Ap     4.407140    34App    4.428821  
      67Ap     4.444874    68Ap     4.601422    69Ap     4.776572  
      70Ap     4.954400    35App    5.151574    71Ap     5.169250  
      72Ap     5.295543    73Ap     5.384492    36App    5.521576  
      74Ap     5.687986    75Ap     6.187565    37App    6.312385  
      76Ap     6.312417    38App    6.375494    77Ap     6.378193  
      39App    6.518196    78Ap     6.519663    79Ap     6.559527  
      80Ap     6.637185    40App    6.735418    81Ap     6.814419  
      41App    6.820065    82Ap     6.919786    42App    6.936863  
      83Ap     6.961316    84Ap     7.050858    43App    7.146581  
      44App    7.270453    85Ap     7.321649    45App    7.322884  
      86Ap     7.363869    46App    7.434836    87Ap     7.643036  
      88Ap     7.943211    89Ap     7.957003    90Ap     8.803473  
      91Ap     9.513531    92Ap    16.265662  

    Beta Occupied:                                                        

       1Ap   -20.654261     2Ap   -20.559173     3Ap    -1.342846  
       4Ap    -1.099911     5Ap    -0.708558     6Ap    -0.579813  
       7Ap    -0.541189     1App   -0.501856  

    Beta Virtual:                                                         

       8Ap     0.034338     2App    0.049381     9Ap     0.049616  
      10Ap     0.055198    11Ap     0.143807    12Ap     0.152953  
       3App    0.161278    13Ap     0.178021    14Ap     0.207819  
      15Ap     0.225458     4App    0.227214    16Ap     0.250694  
      17Ap     0.265490     5App    0.286528    18Ap     0.305845  
       6App    0.324397    19Ap     0.368389    20Ap     0.416992  
      21Ap     0.461224    22Ap     0.572111    23Ap     0.627862  
       7App    0.635025    24Ap     0.640459    25Ap     0.686524  
      26Ap     0.715220     8App    0.721624     9App    0.739850  
      10App    0.750473    27Ap     0.767725    28Ap     0.818009  
      29Ap     0.867384    11App    0.869054    30Ap     0.919950  
      12App    0.941639    31Ap     0.941872    13App    0.949645  
      32Ap     0.952703    33Ap     0.969879    34Ap     1.017377  
      14App    1.020176    35Ap     1.044710    15App    1.156835  
      36Ap     1.163299    37Ap     1.173114    38Ap     1.216275  
      39Ap     1.264011    16App    1.305274    40Ap     1.325669  
      17App    1.527335    41Ap     1.588893    18App    1.598670  
      42Ap     1.741785    43Ap     1.815410    44Ap     1.852532  
      45Ap     1.984058    46Ap     2.015707    19App    2.015718  
      20App    2.053797    47Ap     2.064827    21App    2.170781  
      48Ap     2.175934    22App    2.179642    49Ap     2.194066  
      50Ap     2.244721    23App    2.249892    24App    2.305698  
      51Ap     2.317806    52Ap     2.360907    53Ap     2.419521  
      25App    2.444166    54Ap     2.458422    55Ap     2.497611  
      26App    2.535451    56Ap     2.637196    57Ap     2.726988  
      27App    2.728820    58Ap     2.739417    59Ap     2.860657  
      60Ap     2.937745    28App    2.942974    61Ap     3.693455  
      62Ap     3.893129    29App    4.038002    30App    4.145287  
      63Ap     4.191804    64Ap     4.243233    31App    4.262437  
      65Ap     4.275153    32App    4.300569    33App    4.390414  
      66Ap     4.410847    34App    4.429502    67Ap     4.489272  
      68Ap     4.603938    69Ap     4.778178    70Ap     4.956443  
      35App    5.151560    71Ap     5.169541    72Ap     5.295777  
      73Ap     5.385721    36App    5.521637    74Ap     5.688332  
      75Ap     6.188816    76Ap     6.421236    37App    6.421240  
      38App    6.450678    77Ap     6.453416    78Ap     6.534606  
      39App    6.572064    79Ap     6.600469    80Ap     6.682120  
      40App    6.741371    81Ap     6.921477    41App    7.005162  
      82Ap     7.006769    42App    7.046038    83Ap     7.068345  
      84Ap     7.130630    43App    7.149143    44App    7.270648  
      85Ap     7.321996    45App    7.323649    86Ap     7.364629  
      46App    7.435248    87Ap     7.643896    88Ap     7.944300  
      89Ap     7.957272    90Ap     8.804980    91Ap     9.588569  
      92Ap    16.265941  

    Final Occupation by Irrep:
             Ap   App 
    DOCC [     7,    1 ]
    SOCC [     1,    1 ]

  @UHF Final Energy:  -150.87433698323110

   => Energetics <=

    Nuclear Repulsion Energy =             22.8965384096610514
    One-Electron Energy =                -253.5910525505037185
    Two-Electron Energy =                  79.8201771576115675
    Total Energy =                       -150.8743369832311032

  UHF NO Occupations:
  HONO-2 :    7 Ap 1.9970282
  HONO-1 :    2App 1.0000000
  HONO-0 :    8 Ap 1.0000000
  LUNO+0 :    9 Ap 0.0029718
  LUNO+1 :   10 Ap 0.0017159
  LUNO+2 :   11 Ap 0.0000024
  LUNO+3 :   12 Ap 0.0000017


Computation Completed


Properties will be evaluated at   0.000000,   0.000000,   0.000000 [a0]

Properties computed using the SCF density matrix

  Nuclear Dipole Moment: [e a0]
     X:    -2.2942      Y:     0.9711      Z:     0.0000

  Electronic Dipole Moment: [e a0]
     X:     2.7574      Y:    -0.2952      Z:     0.0000

  Dipole Moment: [e a0]
     X:     0.4632      Y:     0.6759      Z:     0.0000     Total:     0.8194

  Dipole Moment: [D]
     X:     1.1772      Y:     1.7179      Z:     0.0000     Total:     2.0826


*** tstop() called on b1-18.compute.lan at Wed Mar 10 10:57:50 2021
Module time:
	user time   =      74.22 seconds =       1.24 minutes
	system time =       2.20 seconds =       0.04 minutes
	total time  =          9 seconds =       0.15 minutes
Total time:
	user time   =      74.22 seconds =       1.24 minutes
	system time =       2.20 seconds =       0.04 minutes
	total time  =          9 seconds =       0.15 minutes
 MINTS: Wrapper to libmints.
   by Justin Turney

   Calculation information:
      Number of threads:                12
      Number of atoms:                   4
      Number of AO shells:              46
      Number of SO shells:              46
      Number of primitives:             82
      Number of atomic orbitals:       160
      Number of basis functions:       138

      Number of irreps:                  2
      Integral cutoff                 0.00e+00
      Number of functions per irrep: [  92   46 ]

 OEINTS: Overlap, kinetic, potential, dipole, and quadrupole integrals
         stored in file 35.

      Computing two-electron integrals...done
      Computed 22936614 non-zero two-electron integrals.
        Stored in file 33.


*** tstart() called on b1-18.compute.lan
*** at Wed Mar 10 10:57:53 2021


	Wfn Parameters:
	--------------------
	Wavefunction         = CCSD_T
	Number of irreps     = 2
	Number of MOs        = 138
	Number of active MOs = 136
	AO-Basis             = NONE
	Semicanonical        = false
	Reference            = UHF
	Print Level          = 1

	IRREP	# MOs	# FZDC	# DOCC	# SOCC	# VIRT	# FZVR
	-----	-----	------	------	------	------	------
	 Ap	   92	    2	    5	    1	    84	    0
	 App	   46	    0	    1	    1	    44	    0
	Transforming integrals...
	IWL integrals will be deleted.
	(OO|OO)...
	Presorting SO-basis two-electron integrals.
	Sorting File: SO Ints (nn|nn) nbuckets = 1
	Transforming the one-electron integrals and constructing Fock matrices
	Starting AA/AB first half-transformation.
	Sorting AA/AB half-transformed integrals.
	Starting BB first half-transformation.
	Sorting BB half-transformed integrals.
	First half integral transformation complete.
	Starting AA second half-transformation.
	Starting AB second half-transformation.
	Starting BB second half-transformation.
	Two-electron integral transformation complete.
	(OO|OV)...
	Starting AA second half-transformation.
	Starting AB second half-transformation.
	Starting BB second half-transformation.
	Two-electron integral transformation complete.
	(OO|VV)...
	Starting AA second half-transformation.
	Starting AB second half-transformation.
	Starting BB second half-transformation.
	Two-electron integral transformation complete.
	(OV|OO)...
	Starting AA/AB first half-transformation.
	Sorting AA/AB half-transformed integrals.
	Starting BB first half-transformation.
	Sorting BB half-transformed integrals.
	First half integral transformation complete.
	Starting AA second half-transformation.
	Starting AB second half-transformation.
	Starting BB second half-transformation.
	Two-electron integral transformation complete.
	(OV|OV)...
	Starting AA second half-transformation.
	Starting AB second half-transformation.
	Starting BB second half-transformation.
	Two-electron integral transformation complete.
	(OV|VV)...
	Starting AA second half-transformation.
	Starting AB second half-transformation.
	Starting BB second half-transformation.
	Two-electron integral transformation complete.
	(VV|OO)...
	Starting AA/AB first half-transformation.
	Sorting AA/AB half-transformed integrals.
	Starting BB first half-transformation.
	Sorting BB half-transformed integrals.
	First half integral transformation complete.
	Starting AA second half-transformation.
	Starting AB second half-transformation.
	Starting BB second half-transformation.
	Two-electron integral transformation complete.
	(VV|OV)...
	Starting AA second half-transformation.
	Starting AB second half-transformation.
	Starting BB second half-transformation.
	Two-electron integral transformation complete.
	(VV|VV)...
	Starting AA second half-transformation.
	Starting AB second half-transformation.
	Starting BB second half-transformation.
	Two-electron integral transformation complete.
	Frozen core energy     =   -125.85561111675088

	Size of irrep 0 of <AB|CD> integrals:     19.643 (MW) /    157.141 (MB)
	Size of irrep 1 of <AB|CD> integrals:     13.660 (MW) /    109.283 (MB)
	Total:                                    33.303 (MW) /    266.424 (MB)

	Size of irrep 0 of <ab|cd> integrals:     20.794 (MW) /    166.349 (MB)
	Size of irrep 1 of <ab|cd> integrals:     14.631 (MW) /    117.045 (MB)
	Total:                                    35.424 (MW) /    283.394 (MB)

	Size of irrep 0 of <Ab|Cd> integrals:     83.174 (MW) /    665.395 (MB)
	Size of irrep 1 of <Ab|Cd> integrals:     56.550 (MW) /    452.403 (MB)
	Total:                                   139.725 (MW) /   1117.798 (MB)

	Size of irrep 0 of <IA|BC> integrals:      5.323 (MW) /     42.586 (MB)
	Size of irrep 1 of <IA|BC> integrals:      3.193 (MW) /     25.547 (MB)
	Total:                                     8.517 (MW) /     68.133 (MB)

	Size of irrep 0 of <ia|bc> integrals:      4.348 (MW) /     34.780 (MB)
	Size of irrep 1 of <ia|bc> integrals:      2.372 (MW) /     18.972 (MB)
	Total:                                     6.719 (MW) /     53.752 (MB)

	Size of irrep 0 of <Ia|Bc> integrals:      5.472 (MW) /     43.776 (MB)
	Size of irrep 1 of <Ia|Bc> integrals:      3.309 (MW) /     26.470 (MB)
	Total:                                     8.781 (MW) /     70.246 (MB)

	Size of irrep 0 of <iA|bC> integrals:      4.232 (MW) /     33.853 (MB)
	Size of irrep 1 of <iA|bC> integrals:      2.286 (MW) /     18.289 (MB)
	Total:                                     6.518 (MW) /     52.142 (MB)

	Size of irrep 0 of tIjAb amplitudes:       0.292 (MW) /      2.335 (MB)
	Size of irrep 1 of tIjAb amplitudes:       0.120 (MW) /      0.963 (MB)
	Total:                                     0.412 (MW) /      3.297 (MB)

	Nuclear Rep. energy          =     22.89653840966105
	SCF energy                   =   -150.87433698323110
	One-electron energy          =    -84.38535264860096
	Two-electron (AA) energy     =     10.13547427452162
	Two-electron (BB) energy     =      5.39107543819326
	Two-electron (AB) energy     =     20.94353865974338
	Two-electron energy          =     36.47008837245826
	Reference energy             =   -150.87433698323252

*** tstop() called on b1-18.compute.lan at Wed Mar 10 10:59:01 2021
Module time:
	user time   =     429.00 seconds =       7.15 minutes
	system time =      27.85 seconds =       0.46 minutes
	total time  =         68 seconds =       1.13 minutes
Total time:
	user time   =     508.92 seconds =       8.48 minutes
	system time =      30.65 seconds =       0.51 minutes
	total time  =         80 seconds =       1.33 minutes
            **************************
            *                        *
            *        CCENERGY        *
            *                        *
            **************************

    Nuclear Rep. energy (wfn)     =   22.896538409661051
    SCF energy          (wfn)     = -150.874336983231103
    Reference energy    (file100) = -150.874336983232524

    Input parameters:
    -----------------
    Wave function   =     CCSD_T
    Reference wfn   =     UHF
    Brueckner       =     No
    Memory (Mbytes) =     4000.0
    Maxiter         =     50
    R_Convergence   =     1.0e-10
    E_Convergence   =     1.0e-10
    Restart         =     Yes
    DIIS            =     Yes
    AO Basis        =     NONE
    ABCD            =     NEW
    Cache Level     =     2
    Cache Type      =     LRU
    Print Level     =     1
    Num. of threads =     12
    # Amps to Print =     10
    Print MP2 Amps? =     No
    Analyze T2 Amps =     No
    Print Pair Ener =     No
    Local CC        =     No
    SCS-MP2         =     False
    SCSN-MP2        =     False
    SCS-CCSD        =     False

MP2 correlation energy -0.4167392032810300
                Solving CC Amplitude Equations
                ------------------------------
  Iter             Energy              RMS        T1Diag      D1Diag    New D1Diag    D2Diag
  ----     ---------------------    ---------   ----------  ----------  ----------   --------
     0        -0.416739203281030    0.000e+00    0.000000    0.000000    0.000000    0.000000
     1        -0.427421759828524    5.698e-02    0.010572    0.000000    0.000000    0.000000
     2        -0.435526045691248    1.693e-02    0.011049    0.000000    0.000000    0.000000
     3        -0.437654462145216    8.594e-03    0.012925    0.000000    0.000000    0.000000
     4        -0.437528566832297    2.538e-03    0.013293    0.000000    0.000000    0.000000
     5        -0.437514045842971    1.322e-03    0.013449    0.000000    0.000000    0.000000
     6        -0.437541255530310    5.155e-04    0.013472    0.000000    0.000000    0.000000
     7        -0.437545889631361    2.654e-04    0.013466    0.000000    0.000000    0.000000
     8        -0.437546498086021    9.983e-05    0.013462    0.000000    0.000000    0.000000
     9        -0.437547875598848    7.446e-05    0.013463    0.000000    0.000000    0.000000
    10        -0.437546310635663    6.428e-05    0.013464    0.000000    0.000000    0.000000
    11        -0.437546458365872    6.141e-05    0.013465    0.000000    0.000000    0.000000
    12        -0.437546169334540    5.971e-05    0.013467    0.000000    0.000000    0.000000
    13        -0.437546163713973    5.858e-05    0.013471    0.000000    0.000000    0.000000
    14        -0.437547338782381    5.670e-05    0.013489    0.000000    0.000000    0.000000
    15        -0.437547717247936    5.020e-05    0.013561    0.000000    0.000000    0.000000
    16        -0.437547497104678    3.361e-05    0.013702    0.000000    0.000000    0.000000
    17        -0.437547149866925    1.623e-05    0.013771    0.000000    0.000000    0.000000
    18        -0.437547019215584    7.616e-06    0.013789    0.000000    0.000000    0.000000
    19        -0.437547279543680    3.365e-06    0.013793    0.000000    0.000000    0.000000
    20        -0.437547391428370    1.507e-06    0.013794    0.000000    0.000000    0.000000
    21        -0.437547399433535    5.936e-07    0.013794    0.000000    0.000000    0.000000
    22        -0.437547400798170    2.818e-07    0.013794    0.000000    0.000000    0.000000
    23        -0.437547399702882    1.464e-07    0.013794    0.000000    0.000000    0.000000
    24        -0.437547399029310    6.086e-08    0.013794    0.000000    0.000000    0.000000
    25        -0.437547400000028    3.322e-08    0.013794    0.000000    0.000000    0.000000
    26        -0.437547400459661    2.577e-08    0.013794    0.000000    0.000000    0.000000
    27        -0.437547400617328    2.413e-08    0.013794    0.000000    0.000000    0.000000
    28        -0.437547400564981    2.339e-08    0.013794    0.000000    0.000000    0.000000
    29        -0.437547400401082    2.272e-08    0.013794    0.000000    0.000000    0.000000
    30        -0.437547400133975    2.164e-08    0.013794    0.000000    0.000000    0.000000
    31        -0.437547400330193    1.837e-08    0.013795    0.000000    0.000000    0.000000
    32        -0.437547400676790    9.680e-09    0.013795    0.000000    0.000000    0.000000
    33        -0.437547400780383    4.234e-09    0.013795    0.000000    0.000000    0.000000
    34        -0.437547400833635    1.729e-09    0.013795    0.000000    0.000000    0.000000
    35        -0.437547400840671    6.789e-10    0.013795    0.000000    0.000000    0.000000
    36        -0.437547400840511    2.904e-10    0.013795    0.000000    0.000000    0.000000
    37        -0.437547400838390    1.236e-10    0.013795    0.000000    0.000000    0.000000
    38        -0.437547400839871    5.870e-11    0.013795    0.000000    0.000000    0.000000

    Iterations converged.


    Largest TIA Amplitudes:
              7  87        -0.0121937183
              7  84        -0.0116575547
              7  85        -0.0095037916
              4   3         0.0090141535
              6  84        -0.0080688872
              5   9        -0.0076597934
              4  10         0.0070273666
              5   2        -0.0069859302
              2   2         0.0068898141
              7  86        -0.0063523221

    Largest Tia Amplitudes:
              5  86        -0.0123538946
              5  89        -0.0117755924
              5  85        -0.0098855768
              4   1        -0.0097800994
              3   3         0.0089798775
              3  10        -0.0070635803
              5  88        -0.0065418146
              5  87        -0.0060483279
              3  11         0.0058435781
              4   7        -0.0057063525

    Largest TIJAB Amplitudes:
      6   2  92  20        -0.0108008654
      6   2 101  38        -0.0097417338
      6   4  92  29        -0.0096308175
      6   2  92  21        -0.0089383373
      4   2  29  20        -0.0083100835
      4   2  41  40         0.0083059477
      6   2 102  38         0.0075793040
      4   2  29  21        -0.0074502835
      6   2 111  54        -0.0073191246
      6   2  88  38         0.0072332784

    Largest Tijab Amplitudes:
      4   1  42   1         0.0070169531
      4   1  91  85        -0.0067938181
      4   1  19   1         0.0063966547
      4   1 106  85        -0.0063111455
      5   2  94  13        -0.0062713730
      5   2  89  13        -0.0059127503
      5   2 100  17        -0.0057877792
      5   2  86  13        -0.0057568566
      5   2  92  17         0.0057345044
      3   2  18  15         0.0054458767

    Largest TIjAb Amplitudes:
      3   2  12  13        -0.0184433148
      2   1  38   1        -0.0168852179
      6   1  38  85        -0.0164821807
      4   4  29  30         0.0162999755
      4   1 103  85        -0.0151245586
      2   1 101  85         0.0146538610
      2   1  88  85        -0.0143930451
      4   1  41   1        -0.0143651668
      6   1 101   1        -0.0143571723
      6   1  88   1         0.0141205664

    SCF energy       (wfn)                    = -150.874336983231103
    Reference energy (file100)                = -150.874336983232524

    Opposite-spin MP2 correlation energy      =   -0.314732197566015
    Same-spin MP2 correlation energy          =   -0.102007005715015
    MP2 correlation energy                    =   -0.416739203281030
      * MP2 total energy                      = -151.291076186513550

    Opposite-spin CCSD correlation energy     =   -0.342283158175084
    Same-spin CCSD correlation energy         =   -0.095264242664786
    CCSD correlation energy                   =   -0.437547400839871
      * CCSD total energy                     = -151.311884384072386

            **************************
            *                        *
            *        CCTRIPLES       *
            *                        *
            **************************


    Wave function   =    CCSD_T
    Reference wfn   =      UHF

    Nuclear Rep. energy (wfn)                =   22.896538409661051
    SCF energy          (wfn)                = -150.874336983231103
    Reference energy    (file100)            = -150.874336983232524
    CCSD energy         (file100)            =   -0.437547400839871
    Total CCSD energy   (file100)            = -151.311884384072386

    Number of ijk index combinations:
    Spin Case AAA:                                  56
    Spin Case BBB:                                  20
    Spin Case AAB:                                 168
    Spin Case ABB:                                 120
    AAA (T) energy                             =   -0.000399713431003
    BBB (T) energy                             =   -0.000202833552332
    AAB (T) energy                             =   -0.006751078988121
    ABB (T) energy                             =   -0.005017448829207
    (T) energy                                   =   -0.012371074800663
      * CCSD(T) total energy                     = -151.324255458873068

Stephenergy -151.32425545887307
    Psi4 stopped on: Wednesday, 10 March 2021 11:02AM
    Psi4 wall time for execution: 0:05:00.85

*** Psi4 exiting successfully. Buy a developer a beer!
