
    -----------------------------------------------------------------------
          Psi4: An Open-Source Ab Initio Electronic Structure Package
                               Psi4 1.3.2 release

                         Git: Rev {HEAD} ecbda83 


    R. M. Parrish, L. A. Burns, D. G. A. Smith, A. C. Simmonett,
    A. E. DePrince III, E. G. Hohenstein, U. Bozkaya, A. Yu. Sokolov,
    R. Di Remigio, R. M. Richard, J. F. Gonthier, A. M. James,
    H. R. McAlexander, A. Kumar, M. Saitow, X. Wang, B. P. Pritchard,
    P. Verma, H. F. Schaefer III, K. Patkowski, R. A. King, E. F. Valeev,
    F. A. Evangelista, J. M. Turney, T. D. Crawford, and C. D. Sherrill,
    J. Chem. Theory Comput. 13(7) pp 3185--3197 (2017).
    (doi: 10.1021/acs.jctc.7b00174)


                         Additional Contributions by
    P. Kraus, H. Kruse, M. H. Lechner, M. C. Schieber, R. A. Shaw,
    A. Alenaizan, R. Galvelis, Z. L. Glick, S. Lehtola, and J. P. Misiewicz

    -----------------------------------------------------------------------


    Psi4 started on: Tuesday, 09 March 2021 03:19PM

    Process ID: 97771
    Host:       c2-19.compute.lan
    PSIDATADIR: /apps/gb/PSI4/1.3.2/share/psi4
    Memory:     500.0 MiB
    Threads:    12
    
  ==> Input File <==

--------------------------------------------------------------------------
memory 4 GB

molecule  {
0 3
O   -1.505919106202   -0.018458225322    0.000000000000 
H   -0.546120078484    0.063292423026    0.000000000000          
H   -1.821827346471    0.889510415855    0.000000000000
O    1.655121321196   -0.041577015543    0.000000000000
}
set {
basis aug-cc-pvtz
reference uhf
e_convergence 10
scf_type pk
freeze_core true
}

set ccenergy {
e_convergence 10
r_convergence 10
}

e = energy('ccsd(t)')

print_out('Stephenergy {}'.format(e))

--------------------------------------------------------------------------

  Memory set to   3.725 GiB by Python driver.

*** tstart() called on c2-19.compute.lan
*** at Tue Mar  9 15:19:02 2021

   => Loading Basis Set <=

    Name: AUG-CC-PVTZ
    Role: ORBITAL
    Keyword: BASIS
    atoms 1, 4 entry O          line   327 file /apps/gb/PSI4/1.3.2/share/psi4/basis/aug-cc-pvtz.gbs 
    atoms 2-3  entry H          line    36 file /apps/gb/PSI4/1.3.2/share/psi4/basis/aug-cc-pvtz.gbs 


         ---------------------------------------------------------
                                   SCF
               by Justin Turney, Rob Parrish, Andy Simmonett
                          and Daniel G. A. Smith
                              UHF Reference
                       12 Threads,   3814 MiB Core
         ---------------------------------------------------------

  ==> Geometry <==

    Molecular point group: cs
    Full point group: Cs

    Geometry (in Angstrom), charge = 0, multiplicity = 3:

       Center              X                  Y                   Z               Mass       
    ------------   -----------------  -----------------  -----------------  -----------------
         O           -1.505919106202    -0.018458225322     0.000000000000    15.994914619570
         H           -0.546120078484     0.063292423026     0.000000000000     1.007825032230
         H           -1.821827346471     0.889510415855     0.000000000000     1.007825032230
         O            1.655121321196    -0.041577015543     0.000000000000    15.994914619570

  Running in cs symmetry.

  Rotational constants: A =     21.90866  B =      0.20116  C =      0.19933 [cm^-1]
  Rotational constants: A = 656805.16871  B =   6030.72156  C =   5975.85187 [MHz]
  Nuclear repulsion =   22.957421770218751

  Charge       = 0
  Multiplicity = 3
  Electrons    = 18
  Nalpha       = 10
  Nbeta        = 8

  ==> Algorithm <==

  SCF Algorithm Type is PK.
  DIIS enabled.
  MOM disabled.
  Fractional occupation disabled.
  Guess Type is SAD.
  Energy threshold   = 1.00e-10
  Density threshold  = 1.00e-08
  Integral threshold = 0.00e+00

  ==> Primary Basis <==

  Basis Set: AUG-CC-PVTZ
    Blend: AUG-CC-PVTZ
    Number of shells: 46
    Number of basis function: 138
    Number of Cartesian functions: 160
    Spherical Harmonics?: true
    Max angular momentum: 3

  ==> Pre-Iterations <==

   -------------------------------------------------------
    Irrep   Nso     Nmo     Nalpha   Nbeta   Ndocc  Nsocc
   -------------------------------------------------------
     A'        92      92       0       0       0       0
     A"        46      46       0       0       0       0
   -------------------------------------------------------
    Total     138     138      10       8       8       2
   -------------------------------------------------------

  ==> Integral Setup <==

  Using in-core PK algorithm.
   Calculation information:
      Number of atoms:                   4
      Number of AO shells:              46
      Number of primitives:             82
      Number of atomic orbitals:       160
      Number of basis functions:       138

      Integral cutoff                 1.00e-12
      Number of threads:                12

  Performing in-core PK
  Using 91996872 doubles for integral storage.
  We computed 905277 shell quartets total.
  Whereas there are 584821 unique shell quartets.
    54.80 percent of shell quartets recomputed by reordering.

  ==> DiskJK: Disk-Based J/K Matrices <==

    J tasked:                  Yes
    K tasked:                  Yes
    wK tasked:                  No
    Memory [MiB]:             2861
    Schwarz Cutoff:          1E-12

    OpenMP threads:             12

  Minimum eigenvalue in the overlap matrix is 2.9755223737E-04.
  Using Symmetric Orthogonalization.

  SCF Guess: Superposition of Atomic Densities via on-the-fly atomic UHF.

  ==> Iterations <==

                        Total Energy        Delta E     RMS |[F,P]|

   @UHF iter SAD:  -149.40242858715791   -1.49402e+02   0.00000e+00 
   @UHF iter   1:  -150.76321180700478   -1.36078e+00   5.05749e-03 DIIS
   @UHF iter   2:  -150.83777696897732   -7.45652e-02   3.28494e-03 DIIS
   @UHF iter   3:  -150.87306140850032   -3.52844e-02   3.93768e-04 DIIS
   @UHF iter   4:  -150.87417724584074   -1.11584e-03   1.30879e-04 DIIS
   @UHF iter   5:  -150.87430403817552   -1.26792e-04   5.11240e-05 DIIS
   @UHF iter   6:  -150.87433796549345   -3.39273e-05   1.51199e-05 DIIS
   @UHF iter   7:  -150.87434142592781   -3.46043e-06   4.66137e-06 DIIS
   @UHF iter   8:  -150.87434195365941   -5.27732e-07   3.21573e-06 DIIS
   @UHF iter   9:  -150.87434232765864   -3.73999e-07   3.07195e-06 DIIS
   @UHF iter  10:  -150.87434280094442   -4.73286e-07   3.03097e-06 DIIS
   @UHF iter  11:  -150.87434467014515   -1.86920e-06   2.91171e-06 DIIS
   @UHF iter  12:  -150.87435062022092   -5.95008e-06   2.56598e-06 DIIS
   @UHF iter  13:  -150.87435664752769   -6.02731e-06   2.14471e-06 DIIS
   @UHF iter  14:  -150.87436152490309   -4.87738e-06   1.93487e-06 DIIS
   @UHF iter  15:  -150.87436233952280   -8.14620e-07   1.16217e-06 DIIS
   @UHF iter  16:  -150.87436480050781   -2.46099e-06   3.94670e-06 DIIS
   @UHF iter  17:  -150.87436485551828   -5.50105e-08   1.94659e-06 DIIS
   @UHF iter  18:  -150.87436488913767   -3.36194e-08   8.54293e-07 DIIS
   @UHF iter  19:  -150.87436489303613   -3.89846e-09   1.59404e-07 DIIS
   @UHF iter  20:  -150.87436489311031   -7.41807e-11   1.42413e-07 DIIS
   @UHF iter  21:  -150.87436489321072   -1.00414e-10   5.59823e-09 DIIS
   @UHF iter  22:  -150.87436489321036    3.69482e-13   1.27020e-08 DIIS
   @UHF iter  23:  -150.87436489321149   -1.13687e-12   3.72708e-09 DIIS
  Energy and wave function converged.


  ==> Post-Iterations <==

   @Spin Contamination Metric:   9.366210505E-03
   @S^2 Expected:                2.000000000E+00
   @S^2 Observed:                2.009366211E+00
   @S   Expected:                1.000000000E+00
   @S   Observed:                1.000000000E+00

    Orbital Energies [Eh]
    ---------------------

    Alpha Occupied:                                                       

       1Ap   -20.734665     2Ap   -20.558297     3Ap    -1.444054  
       4Ap    -1.342482     5Ap    -0.734614     1App   -0.734388  
       6Ap    -0.709695     7Ap    -0.636289     8Ap    -0.574513  
       2App   -0.501442  

    Alpha Virtual:                                                        

       9Ap     0.034469    10Ap     0.053386    11Ap     0.127522  
       3App    0.131993    12Ap     0.148098    13Ap     0.160985  
      14Ap     0.183711     4App    0.186750    15Ap     0.213536  
      16Ap     0.242105    17Ap     0.268882     5App    0.284344  
      18Ap     0.298221     6App    0.322746    19Ap     0.370099  
      20Ap     0.398800    21Ap     0.460568    22Ap     0.563632  
       7App    0.600738    23Ap     0.608620    24Ap     0.637420  
      25Ap     0.671985    26Ap     0.713658     8App    0.714436  
       9App    0.735148    10App    0.748206    27Ap     0.764745  
      28Ap     0.807636    11App    0.825113    29Ap     0.844052  
      30Ap     0.874228    12App    0.886803    31Ap     0.925271  
      13App    0.944568    32Ap     0.945811    33Ap     0.953877  
      14App    0.979707    34Ap     0.982997    35Ap     1.044179  
      36Ap     1.128910    15App    1.168887    37Ap     1.169321  
      38Ap     1.194469    39Ap     1.270824    16App    1.279614  
      40Ap     1.325585    17App    1.528535    41Ap     1.569586  
      18App    1.600769    42Ap     1.700833    43Ap     1.817264  
      44Ap     1.833918    19App    1.976083    45Ap     1.976092  
      46Ap     1.987102    20App    2.011939    47Ap     2.017429  
      21App    2.050808    48Ap     2.062593    22App    2.125934  
      49Ap     2.164324    50Ap     2.176826    23App    2.215525  
      24App    2.299079    51Ap     2.315887    52Ap     2.329646  
      53Ap     2.417174    25App    2.453074    54Ap     2.461280  
      55Ap     2.522998    26App    2.527160    56Ap     2.637225  
      57Ap     2.697830    27App    2.729085    58Ap     2.749640  
      59Ap     2.860310    60Ap     2.937564    28App    2.946495  
      61Ap     3.699614    62Ap     3.900863    29App    4.037098  
      30App    4.060244    63Ap     4.074212    31App    4.177366  
      64Ap     4.205795    65Ap     4.272594    32App    4.299708  
      66Ap     4.390921    33App    4.392624    67Ap     4.436794  
      34App    4.437086    68Ap     4.588136    69Ap     4.781787  
      70Ap     4.965615    35App    5.155093    71Ap     5.177458  
      72Ap     5.303912    73Ap     5.381981    36App    5.526573  
      74Ap     5.691103    75Ap     6.195001    37App    6.310633  
      76Ap     6.310665    38App    6.374679    77Ap     6.377468  
      39App    6.525262    78Ap     6.525750    79Ap     6.562292  
      80Ap     6.641750    40App    6.728878    81Ap     6.812749  
      41App    6.819034    82Ap     6.917760    42App    6.935731  
      83Ap     6.966504    84Ap     7.051269    43App    7.148615  
      44App    7.274403    85Ap     7.322502    45App    7.327344  
      86Ap     7.362399    46App    7.443388    87Ap     7.656338  
      88Ap     7.946075    89Ap     7.967117    90Ap     8.810697  
      91Ap     9.479809    92Ap    16.465432  

    Beta Occupied:                                                        

       1Ap   -20.655880     2Ap   -20.558441     3Ap    -1.343113  
       4Ap    -1.101607     5Ap    -0.708614     6Ap    -0.580799  
       7Ap    -0.541959     1App   -0.501495  

    Beta Virtual:                                                         

       8Ap     0.034343     9Ap     0.047445     2App    0.048063  
      10Ap     0.056243    11Ap     0.144402    12Ap     0.151578  
       3App    0.160764    13Ap     0.179149    14Ap     0.208915  
      15Ap     0.221458     4App    0.226293    16Ap     0.251589  
      17Ap     0.270603     5App    0.284613    18Ap     0.300406  
       6App    0.326759    19Ap     0.374069    20Ap     0.410070  
      21Ap     0.461468    22Ap     0.567013     7App    0.633079  
      23Ap     0.636958    24Ap     0.641951    25Ap     0.675646  
      26Ap     0.714209     8App    0.727355     9App    0.737206  
      10App    0.749890    27Ap     0.784550    28Ap     0.819562  
      29Ap     0.853297    11App    0.868105    30Ap     0.920205  
      12App    0.940164    31Ap     0.944178    13App    0.948997  
      32Ap     0.954140    33Ap     0.971742    34Ap     1.017361  
      14App    1.023108    35Ap     1.048198    36Ap     1.158003  
      15App    1.172372    37Ap     1.176239    38Ap     1.218306  
      39Ap     1.273459    16App    1.290408    40Ap     1.335438  
      17App    1.529336    41Ap     1.573865    18App    1.602391  
      42Ap     1.727428    43Ap     1.823109    44Ap     1.843048  
      45Ap     1.994436    19App    2.014130    46Ap     2.014187  
      20App    2.055356    47Ap     2.067330    21App    2.174580  
      48Ap     2.178139    22App    2.179921    49Ap     2.204961  
      50Ap     2.243204    23App    2.252102    24App    2.301600  
      51Ap     2.323652    52Ap     2.348892    53Ap     2.422770  
      25App    2.455322    54Ap     2.462049    55Ap     2.529682  
      26App    2.535998    56Ap     2.644093    57Ap     2.708883  
      27App    2.730404    58Ap     2.758927    59Ap     2.863230  
      60Ap     2.941112    28App    2.947162    61Ap     3.700180  
      62Ap     3.903769    29App    4.037929    30App    4.147929  
      63Ap     4.183780    64Ap     4.243672    31App    4.259555  
      65Ap     4.291719    32App    4.299843    33App    4.392746  
      66Ap     4.401706    34App    4.438250    67Ap     4.473519  
      68Ap     4.589602    69Ap     4.783089    70Ap     4.967908  
      35App    5.155085    71Ap     5.177942    72Ap     5.304166  
      73Ap     5.383198    36App    5.526669    74Ap     5.691636  
      75Ap     6.195708    37App    6.419554    76Ap     6.419562  
      38App    6.449930    77Ap     6.452715    78Ap     6.534136  
      39App    6.579689    79Ap     6.610038    80Ap     6.687180  
      40App    6.733881    81Ap     6.919565    41App    7.004670  
      82Ap     7.005831    42App    7.044304    83Ap     7.071920  
      84Ap     7.131131    43App    7.151020    44App    7.274790  
      85Ap     7.322731    45App    7.328151    86Ap     7.362967  
      46App    7.443831    87Ap     7.657403    88Ap     7.946665  
      89Ap     7.967397    90Ap     8.812896    91Ap     9.554383  
      92Ap    16.465915  

    Final Occupation by Irrep:
             Ap   App 
    DOCC [     7,    1 ]
    SOCC [     1,    1 ]

  @UHF Final Energy:  -150.87436489321149

   => Energetics <=

    Nuclear Repulsion Energy =             22.9574217702187511
    One-Electron Energy =                -253.7012250932278903
    Two-Electron Energy =                  79.8694384297976399
    Total Energy =                       -150.8743648932114922

  UHF NO Occupations:
  HONO-2 :    7 Ap 1.9970275
  HONO-1 :    2App 1.0000000
  HONO-0 :    8 Ap 1.0000000
  LUNO+0 :    9 Ap 0.0029725
  LUNO+1 :   10 Ap 0.0017114
  LUNO+2 :   11 Ap 0.0000024
  LUNO+3 :   12 Ap 0.0000020


Computation Completed


Properties will be evaluated at   0.000000,   0.000000,   0.000000 [a0]

Properties computed using the SCF density matrix

  Nuclear Dipole Moment: [e a0]
     X:    -2.2192      Y:     0.8929      Z:     0.0000

  Electronic Dipole Moment: [e a0]
     X:     2.7433      Y:    -0.2474      Z:     0.0000

  Dipole Moment: [e a0]
     X:     0.5241      Y:     0.6455      Z:     0.0000     Total:     0.8315

  Dipole Moment: [D]
     X:     1.3321      Y:     1.6408      Z:     0.0000     Total:     2.1135


*** tstop() called on c2-19.compute.lan at Tue Mar  9 15:19:10 2021
Module time:
	user time   =      74.60 seconds =       1.24 minutes
	system time =       3.66 seconds =       0.06 minutes
	total time  =          8 seconds =       0.13 minutes
Total time:
	user time   =      74.60 seconds =       1.24 minutes
	system time =       3.66 seconds =       0.06 minutes
	total time  =          8 seconds =       0.13 minutes
 MINTS: Wrapper to libmints.
   by Justin Turney

   Calculation information:
      Number of threads:                12
      Number of atoms:                   4
      Number of AO shells:              46
      Number of SO shells:              46
      Number of primitives:             82
      Number of atomic orbitals:       160
      Number of basis functions:       138

      Number of irreps:                  2
      Integral cutoff                 0.00e+00
      Number of functions per irrep: [  92   46 ]

 OEINTS: Overlap, kinetic, potential, dipole, and quadrupole integrals
         stored in file 35.

      Computing two-electron integrals...done
      Computed 22914289 non-zero two-electron integrals.
        Stored in file 33.


*** tstart() called on c2-19.compute.lan
*** at Tue Mar  9 15:19:14 2021


	Wfn Parameters:
	--------------------
	Wavefunction         = CCSD_T
	Number of irreps     = 2
	Number of MOs        = 138
	Number of active MOs = 136
	AO-Basis             = NONE
	Semicanonical        = false
	Reference            = UHF
	Print Level          = 1

	IRREP	# MOs	# FZDC	# DOCC	# SOCC	# VIRT	# FZVR
	-----	-----	------	------	------	------	------
	 Ap	   92	    2	    5	    1	    84	    0
	 App	   46	    0	    1	    1	    44	    0
	Transforming integrals...
	IWL integrals will be deleted.
	(OO|OO)...
	Presorting SO-basis two-electron integrals.
	Sorting File: SO Ints (nn|nn) nbuckets = 1
	Transforming the one-electron integrals and constructing Fock matrices
	Starting AA/AB first half-transformation.
	Sorting AA/AB half-transformed integrals.
	Starting BB first half-transformation.
	Sorting BB half-transformed integrals.
	First half integral transformation complete.
	Starting AA second half-transformation.
	Starting AB second half-transformation.
	Starting BB second half-transformation.
	Two-electron integral transformation complete.
	(OO|OV)...
	Starting AA second half-transformation.
	Starting AB second half-transformation.
	Starting BB second half-transformation.
	Two-electron integral transformation complete.
	(OO|VV)...
	Starting AA second half-transformation.
	Starting AB second half-transformation.
	Starting BB second half-transformation.
	Two-electron integral transformation complete.
	(OV|OO)...
	Starting AA/AB first half-transformation.
	Sorting AA/AB half-transformed integrals.
	Starting BB first half-transformation.
	Sorting BB half-transformed integrals.
	First half integral transformation complete.
	Starting AA second half-transformation.
	Starting AB second half-transformation.
	Starting BB second half-transformation.
	Two-electron integral transformation complete.
	(OV|OV)...
	Starting AA second half-transformation.
	Starting AB second half-transformation.
	Starting BB second half-transformation.
	Two-electron integral transformation complete.
	(OV|VV)...
	Starting AA second half-transformation.
	Starting AB second half-transformation.
	Starting BB second half-transformation.
	Two-electron integral transformation complete.
	(VV|OO)...
	Starting AA/AB first half-transformation.
	Sorting AA/AB half-transformed integrals.
	Starting BB first half-transformation.
	Sorting BB half-transformed integrals.
	First half integral transformation complete.
	Starting AA second half-transformation.
	Starting AB second half-transformation.
	Starting BB second half-transformation.
	Two-electron integral transformation complete.
	(VV|OV)...
	Starting AA second half-transformation.
	Starting AB second half-transformation.
	Starting BB second half-transformation.
	Two-electron integral transformation complete.
	(VV|VV)...
	Starting AA second half-transformation.
	Starting AB second half-transformation.
	Starting BB second half-transformation.
	Two-electron integral transformation complete.
	Frozen core energy     =   -125.87209740392164

	Size of irrep 0 of <AB|CD> integrals:     19.643 (MW) /    157.141 (MB)
	Size of irrep 1 of <AB|CD> integrals:     13.660 (MW) /    109.283 (MB)
	Total:                                    33.303 (MW) /    266.424 (MB)

	Size of irrep 0 of <ab|cd> integrals:     20.794 (MW) /    166.349 (MB)
	Size of irrep 1 of <ab|cd> integrals:     14.631 (MW) /    117.045 (MB)
	Total:                                    35.424 (MW) /    283.394 (MB)

	Size of irrep 0 of <Ab|Cd> integrals:     83.174 (MW) /    665.395 (MB)
	Size of irrep 1 of <Ab|Cd> integrals:     56.550 (MW) /    452.403 (MB)
	Total:                                   139.725 (MW) /   1117.798 (MB)

	Size of irrep 0 of <IA|BC> integrals:      5.323 (MW) /     42.586 (MB)
	Size of irrep 1 of <IA|BC> integrals:      3.193 (MW) /     25.547 (MB)
	Total:                                     8.517 (MW) /     68.133 (MB)

	Size of irrep 0 of <ia|bc> integrals:      4.348 (MW) /     34.780 (MB)
	Size of irrep 1 of <ia|bc> integrals:      2.372 (MW) /     18.972 (MB)
	Total:                                     6.719 (MW) /     53.752 (MB)

	Size of irrep 0 of <Ia|Bc> integrals:      5.472 (MW) /     43.776 (MB)
	Size of irrep 1 of <Ia|Bc> integrals:      3.309 (MW) /     26.470 (MB)
	Total:                                     8.781 (MW) /     70.246 (MB)

	Size of irrep 0 of <iA|bC> integrals:      4.232 (MW) /     33.853 (MB)
	Size of irrep 1 of <iA|bC> integrals:      2.286 (MW) /     18.289 (MB)
	Total:                                     6.518 (MW) /     52.142 (MB)

	Size of irrep 0 of tIjAb amplitudes:       0.292 (MW) /      2.335 (MB)
	Size of irrep 1 of tIjAb amplitudes:       0.120 (MW) /      0.963 (MB)
	Total:                                     0.412 (MW) /      3.297 (MB)

	Nuclear Rep. energy          =     22.95742177021875
	SCF energy                   =   -150.87436489321149
	One-electron energy          =    -84.46431430836088
	Two-electron (AA) energy     =     10.14531573403273
	Two-electron (BB) energy     =      5.39771430471015
	Two-electron (AB) energy     =     20.96159501010855
	Two-electron energy          =     36.50462504885142
	Reference energy             =   -150.87436489321237

*** tstop() called on c2-19.compute.lan at Tue Mar  9 15:20:02 2021
Module time:
	user time   =     288.60 seconds =       4.81 minutes
	system time =      22.95 seconds =       0.38 minutes
	total time  =         48 seconds =       0.80 minutes
Total time:
	user time   =     370.66 seconds =       6.18 minutes
	system time =      27.51 seconds =       0.46 minutes
	total time  =         60 seconds =       1.00 minutes
            **************************
            *                        *
            *        CCENERGY        *
            *                        *
            **************************

    Nuclear Rep. energy (wfn)     =   22.957421770218751
    SCF energy          (wfn)     = -150.874364893211492
    Reference energy    (file100) = -150.874364893212373

    Input parameters:
    -----------------
    Wave function   =     CCSD_T
    Reference wfn   =     UHF
    Brueckner       =     No
    Memory (Mbytes) =     4000.0
    Maxiter         =     50
    R_Convergence   =     1.0e-10
    E_Convergence   =     1.0e-10
    Restart         =     Yes
    DIIS            =     Yes
    AO Basis        =     NONE
    ABCD            =     NEW
    Cache Level     =     2
    Cache Type      =     LRU
    Print Level     =     1
    Num. of threads =     12
    # Amps to Print =     10
    Print MP2 Amps? =     No
    Analyze T2 Amps =     No
    Print Pair Ener =     No
    Local CC        =     No
    SCS-MP2         =     False
    SCSN-MP2        =     False
    SCS-CCSD        =     False

MP2 correlation energy -0.4166842094132297
                Solving CC Amplitude Equations
                ------------------------------
  Iter             Energy              RMS        T1Diag      D1Diag    New D1Diag    D2Diag
  ----     ---------------------    ---------   ----------  ----------  ----------   --------
     0        -0.416684209413230    0.000e+00    0.000000    0.000000    0.000000    0.000000
     1        -0.427394367964047    5.690e-02    0.010559    0.000000    0.000000    0.000000
     2        -0.435489429705221    1.689e-02    0.011044    0.000000    0.000000    0.000000
     3        -0.437608934027639    8.586e-03    0.012919    0.000000    0.000000    0.000000
     4        -0.437483540454691    2.537e-03    0.013288    0.000000    0.000000    0.000000
     5        -0.437468381809103    1.331e-03    0.013447    0.000000    0.000000    0.000000
     6        -0.437495826698005    5.179e-04    0.013471    0.000000    0.000000    0.000000
     7        -0.437500622694699    2.714e-04    0.013466    0.000000    0.000000    0.000000
     8        -0.437501183588967    1.003e-04    0.013462    0.000000    0.000000    0.000000
     9        -0.437502596938818    7.321e-05    0.013463    0.000000    0.000000    0.000000
    10        -0.437500983987998    6.163e-05    0.013464    0.000000    0.000000    0.000000
    11        -0.437501134955210    5.820e-05    0.013466    0.000000    0.000000    0.000000
    12        -0.437500902371700    5.637e-05    0.013468    0.000000    0.000000    0.000000
    13        -0.437500901093809    5.534e-05    0.013470    0.000000    0.000000    0.000000
    14        -0.437501943734217    5.384e-05    0.013483    0.000000    0.000000    0.000000
    15        -0.437502308021737    4.854e-05    0.013540    0.000000    0.000000    0.000000
    16        -0.437502068093473    3.365e-05    0.013667    0.000000    0.000000    0.000000
    17        -0.437501737759507    1.656e-05    0.013736    0.000000    0.000000    0.000000
    18        -0.437501591030135    7.780e-06    0.013754    0.000000    0.000000    0.000000
    19        -0.437501840461805    3.446e-06    0.013759    0.000000    0.000000    0.000000
    20        -0.437501956708667    1.537e-06    0.013760    0.000000    0.000000    0.000000
    21        -0.437501964550163    6.195e-07    0.013760    0.000000    0.000000    0.000000
    22        -0.437501966053247    2.950e-07    0.013760    0.000000    0.000000    0.000000
    23        -0.437501965043852    1.527e-07    0.013760    0.000000    0.000000    0.000000
    24        -0.437501964113853    6.170e-08    0.013760    0.000000    0.000000    0.000000
    25        -0.437501965076324    3.209e-08    0.013760    0.000000    0.000000    0.000000
    26        -0.437501965545833    2.397e-08    0.013760    0.000000    0.000000    0.000000
    27        -0.437501965700954    2.231e-08    0.013760    0.000000    0.000000    0.000000
    28        -0.437501965663875    2.164e-08    0.013760    0.000000    0.000000    0.000000
    29        -0.437501965535556    2.115e-08    0.013760    0.000000    0.000000    0.000000
    30        -0.437501965297782    2.050e-08    0.013760    0.000000    0.000000    0.000000
    31        -0.437501965358019    1.849e-08    0.013760    0.000000    0.000000    0.000000
    32        -0.437501965679152    1.144e-08    0.013760    0.000000    0.000000    0.000000
    33        -0.437501965800289    5.229e-09    0.013761    0.000000    0.000000    0.000000
    34        -0.437501965872292    2.153e-09    0.013761    0.000000    0.000000    0.000000
    35        -0.437501965880794    8.088e-10    0.013761    0.000000    0.000000    0.000000
    36        -0.437501965881670    3.343e-10    0.013761    0.000000    0.000000    0.000000
    37        -0.437501965879911    1.423e-10    0.013761    0.000000    0.000000    0.000000
    38        -0.437501965881593    6.731e-11    0.013761    0.000000    0.000000    0.000000

    Iterations converged.


    Largest TIA Amplitudes:
              7  87        -0.0123442352
              7  84        -0.0116992626
              7  85        -0.0093745978
              4   3         0.0091978426
              6  84        -0.0080843423
              4  10         0.0077032052
              5   9        -0.0072538522
              2   2         0.0069869755
              5   2        -0.0069687850
              7  86        -0.0060589565

    Largest Tia Amplitudes:
              5  86        -0.0121971759
              5  89        -0.0118963716
              5  85        -0.0102160492
              4   1        -0.0088309778
              3   3         0.0085102998
              3  11         0.0069939566
              5  88        -0.0063950860
              3  10        -0.0063261530
              5  87        -0.0060148898
              4   4        -0.0053313940

    Largest TIJAB Amplitudes:
      6   2  92  21        -0.0119510971
      6   2 101  38        -0.0100905032
      6   4  92  29         0.0089272904
      4   2  29  21         0.0085965152
      4   2  41  40         0.0085309010
      6   4 103  40         0.0076966138
      6   2 111  54        -0.0076542744
      6   2 102  38         0.0073893139
      7   5  90  17        -0.0073587131
      6   2  88  38         0.0073199032

    Largest Tijab Amplitudes:
      4   1  91  85        -0.0069652979
      4   1 106  85        -0.0063658256
      5   2 100  17        -0.0063617610
      5   3  92  18        -0.0062959855
      4   1  42   1         0.0062264686
      5   2  89  13        -0.0058816119
      5   3  89  11         0.0058457196
      5   2  94  13        -0.0056752927
      5   2  92  17         0.0056314391
      5   2  86  13        -0.0056172967

    Largest TIjAb Amplitudes:
      3   2  12  13        -0.0185613132
      6   1  38  85        -0.0166432118
      2   1  38   1        -0.0157837702
      4   1 103  85        -0.0152317633
      2   1 101  85         0.0152127134
      2   1  88  85        -0.0144791075
      4   4  29  30        -0.0139436654
      6   1 101   1        -0.0136856069
      4   1  41   1        -0.0134338821
      6   1  14  85         0.0130655160

    SCF energy       (wfn)                    = -150.874364893211492
    Reference energy (file100)                = -150.874364893212373

    Opposite-spin MP2 correlation energy      =   -0.314677401465358
    Same-spin MP2 correlation energy          =   -0.102006807947872
    MP2 correlation energy                    =   -0.416684209413230
      * MP2 total energy                      = -151.291049102625607

    Opposite-spin CCSD correlation energy     =   -0.342215315111328
    Same-spin CCSD correlation energy         =   -0.095286650770265
    CCSD correlation energy                   =   -0.437501965881593
      * CCSD total energy                     = -151.311866859093954

            **************************
            *                        *
            *        CCTRIPLES       *
            *                        *
            **************************


    Wave function   =    CCSD_T
    Reference wfn   =      UHF

    Nuclear Rep. energy (wfn)                =   22.957421770218751
    SCF energy          (wfn)                = -150.874364893211492
    Reference energy    (file100)            = -150.874364893212373
    CCSD energy         (file100)            =   -0.437501965881593
    Total CCSD energy   (file100)            = -151.311866859093954

    Number of ijk index combinations:
    Spin Case AAA:                                  56
    Spin Case BBB:                                  20
    Spin Case AAB:                                 168
    Spin Case ABB:                                 120
    AAA (T) energy                             =   -0.000400175206461
    BBB (T) energy                             =   -0.000202996756072
    AAB (T) energy                             =   -0.006749779156519
    ABB (T) energy                             =   -0.005015304551371
    (T) energy                                   =   -0.012368255670423
      * CCSD(T) total energy                     = -151.324235114764377

Stephenergy -151.32423511476438
    Psi4 stopped on: Tuesday, 09 March 2021 03:23PM
    Psi4 wall time for execution: 0:04:11.55

*** Psi4 exiting successfully. Buy a developer a beer!
