
    -----------------------------------------------------------------------
          Psi4: An Open-Source Ab Initio Electronic Structure Package
                               Psi4 1.4a2.dev191 

                         Git: Rev {master} 0ab5346 


    R. M. Parrish, L. A. Burns, D. G. A. Smith, A. C. Simmonett,
    A. E. DePrince III, E. G. Hohenstein, U. Bozkaya, A. Yu. Sokolov,
    R. Di Remigio, R. M. Richard, J. F. Gonthier, A. M. James,
    H. R. McAlexander, A. Kumar, M. Saitow, X. Wang, B. P. Pritchard,
    P. Verma, H. F. Schaefer III, K. Patkowski, R. A. King, E. F. Valeev,
    F. A. Evangelista, J. M. Turney, T. D. Crawford, and C. D. Sherrill,
    J. Chem. Theory Comput. 13(7) pp 3185--3197 (2017).
    (doi: 10.1021/acs.jctc.7b00174)


                         Additional Contributions by
    P. Kraus, H. Kruse, M. H. Lechner, M. C. Schieber, R. A. Shaw,
    A. Alenaizan, R. Galvelis, Z. L. Glick, S. Lehtola, and J. P. Misiewicz

    -----------------------------------------------------------------------


    Psi4 started on: Tuesday, 23 February 2021 01:35PM

    Process ID: 6362
    Host:       c1-17.compute.lan
    PSIDATADIR: /apps/gb/PSI4/1.4.0/share/psi4
    Memory:     500.0 MiB
    Threads:    1
    
  ==> Input File <==

--------------------------------------------------------------------------
memory 10 GB
molecule {
0 2
O
H 1 R1
R1 = 0.9478992047
}
set {
basis aug-cc-pvqz
e_convergence 10
g_convergence gau_verytight
reference uhf
scf_type pk
mp2_type conv
}

set ccenergy {
e_convergence 10
r_convergence 10
}

optimize("ccsd")

--------------------------------------------------------------------------

  Memory set to   9.313 GiB by Python driver.
gradient() will perform analytic gradient computation.

*** tstart() called on c1-17.compute.lan
*** at Tue Feb 23 13:35:04 2021

   => Loading Basis Set <=

    Name: AUG-CC-PVQZ
    Role: ORBITAL
    Keyword: BASIS
    atoms 1 entry O          line   423 file /apps/gb/PSI4/1.4.0/share/psi4/basis/aug-cc-pvqz.gbs 
    atoms 2 entry H          line    40 file /apps/gb/PSI4/1.4.0/share/psi4/basis/aug-cc-pvqz.gbs 


         ---------------------------------------------------------
                                   SCF
               by Justin Turney, Rob Parrish, Andy Simmonett
                          and Daniel G. A. Smith
                              UHF Reference
                        1 Threads,   9536 MiB Core
         ---------------------------------------------------------

  ==> Geometry <==

    Molecular point group: c2v
    Full point group: C_inf_v

    Geometry (in Angstrom), charge = 0, multiplicity = 2:

       Center              X                  Y                   Z               Mass       
    ------------   -----------------  -----------------  -----------------  -----------------
         O            0.000000000000     0.000000000000    -0.056186036256    15.994914619570
         H            0.000000000000     0.000000000000     0.891713168444     1.007825032230

  Running in c2v symmetry.

  Rotational constants: A = ************  B =     19.78901  C =     19.78901 [cm^-1]
  Rotational constants: A = ************  B = 593259.52428  C = 593259.52428 [MHz]
  Nuclear repulsion =    4.466105324668810

  Charge       = 0
  Multiplicity = 2
  Electrons    = 9
  Nalpha       = 5
  Nbeta        = 4

  ==> Algorithm <==

  SCF Algorithm Type is PK.
  DIIS enabled.
  MOM disabled.
  Fractional occupation disabled.
  Guess Type is SAD.
  Energy threshold   = 1.00e-10
  Density threshold  = 1.00e-10
  Integral threshold = 0.00e+00

  ==> Primary Basis <==

  Basis Set: AUG-CC-PVQZ
    Blend: AUG-CC-PVQZ
    Number of shells: 34
    Number of basis function: 126
    Number of Cartesian functions: 160
    Spherical Harmonics?: true
    Max angular momentum: 4

  ==> Pre-Iterations <==

   -------------------------------------------------------
    Irrep   Nso     Nmo     Nalpha   Nbeta   Ndocc  Nsocc
   -------------------------------------------------------
     A1        50      50       0       0       0       0
     A2        16      16       0       0       0       0
     B1        30      30       0       0       0       0
     B2        30      30       0       0       0       0
   -------------------------------------------------------
    Total     126     126       5       4       4       1
   -------------------------------------------------------

  ==> Integral Setup <==

  Using in-core PK algorithm.
   Calculation information:
      Number of atoms:                   2
      Number of AO shells:              34
      Number of primitives:             54
      Number of atomic orbitals:       160
      Number of basis functions:       126

      Integral cutoff                 1.00e-12
      Number of threads:                 1

  Performing in-core PK
  Using 64024002 doubles for integral storage.
  We computed 177310 shell quartets total.
  Whereas there are 177310 unique shell quartets.

  ==> DiskJK: Disk-Based J/K Matrices <==

    J tasked:                  Yes
    K tasked:                  Yes
    wK tasked:                  No
    Memory [MiB]:             7152
    Schwarz Cutoff:          1E-12

    OpenMP threads:              1

  Minimum eigenvalue in the overlap matrix is 1.2724388167E-04.
  Using Symmetric Orthogonalization.

  SCF Guess: Superposition of Atomic Densities via on-the-fly atomic UHF.

  ==> Iterations <==

                        Total Energy        Delta E     RMS |[F,P]|

   @UHF iter SAD:   -74.66621320405173   -7.46662e+01   0.00000e+00 
   @UHF iter   1:   -75.40333480176001   -7.37122e-01   3.48697e-03 DIIS
   @UHF iter   2:   -75.42372678460491   -2.03920e-02   1.33559e-03 DIIS
   @UHF iter   3:   -75.42647102596391   -2.74424e-03   3.90472e-04 DIIS
   @UHF iter   4:   -75.42691108668498   -4.40061e-04   1.18804e-04 DIIS
   @UHF iter   5:   -75.42698239886994   -7.13122e-05   5.24029e-05 DIIS
   @UHF iter   6:   -75.42700154257516   -1.91437e-05   1.84804e-05 DIIS
   @UHF iter   7:   -75.42700445875067   -2.91618e-06   6.09468e-06 DIIS
   @UHF iter   8:   -75.42700478739425   -3.28644e-07   1.30136e-06 DIIS
   @UHF iter   9:   -75.42700479836168   -1.09674e-08   4.28126e-07 DIIS
   @UHF iter  10:   -75.42700479966803   -1.30635e-09   6.87350e-08 DIIS
   @UHF iter  11:   -75.42700479969869   -3.06670e-11   8.52510e-09 DIIS
   @UHF iter  12:   -75.42700479969909   -3.97904e-13   1.94908e-09 DIIS
   @UHF iter  13:   -75.42700479969903    5.68434e-14   4.48392e-10 DIIS
   @UHF iter  14:   -75.42700479969918   -1.42109e-13   1.00532e-10 DIIS
   @UHF iter  15:   -75.42700479969912    5.68434e-14   1.69201e-11 DIIS
  Energy and wave function converged.


  ==> Post-Iterations <==

   @Spin Contamination Metric:   6.872842400E-03
   @S^2 Expected:                7.500000000E-01
   @S^2 Observed:                7.568728424E-01
   @S   Expected:                5.000000000E-01
   @S   Observed:                5.000000000E-01

    Orbital Energies [Eh]
    ---------------------

    Alpha Occupied:                                                       

       1A1   -20.636824     2A1    -1.395876     3A1    -0.689165  
       1B2    -0.659742     1B1    -0.562702  

    Alpha Virtual:                                                        

       4A1     0.027743     5A1     0.113607     2B2     0.129851  
       2B1     0.137166     6A1     0.162122     3B2     0.213549  
       3B1     0.218178     7A1     0.220543     8A1     0.351869  
       9A1     0.471841     1A2     0.473100    10A1     0.508274  
       4B2     0.546072     4B1     0.556621     5B2     0.619636  
       5B1     0.636078    11A1     0.648189     2A2     0.679270  
      12A1     0.679995    13A1     0.708101     6B2     0.735388  
       6B1     0.757554    14A1     0.788961     7B2     1.154372  
       7B1     1.173446    15A1     1.224975     8B2     1.322720  
       8B1     1.322731    16A1     1.473537     3A2     1.475355  
      17A1     1.493243     9B2     1.533126     9B1     1.553467  
      18A1     1.577563     4A2     1.577877    19A1     1.628932  
      20A1     1.648095    10B2     1.683728    10B1     1.699918  
      11B2     1.725092    11B1     1.725366     5A2     1.857224  
      21A1     1.857369    22A1     1.880960    12B2     2.086939  
      12B1     2.112328    23A1     2.441315    13B2     2.606564  
      13B1     2.653222    14B2     2.968436    14B1     2.987087  
      24A1     2.994963     6A2     2.994999    25A1     3.049910  
      26A1     3.601002     7A2     3.647911    27A1     3.647911  
      15B2     3.751780    15B1     3.794931    16B2     3.913948  
      16B1     3.914172    28A1     3.996768    17B2     4.076607  
      17B1     4.077036     8A2     4.133221    18B2     4.135411  
      29A1     4.136431    18B1     4.173113    30A1     4.195059  
       9A2     4.262590    31A1     4.265168    32A1     4.415919  
      19B2     4.759506    19B1     4.800923    10A2     4.818700  
      33A1     4.819243    34A1     5.141688    20B2     5.599498  
      20B1     5.639775    35A1     5.909311    21B2     6.704679  
      21B1     6.704680    22B2     7.733840    22B1     7.747451  
      36A1     7.823528    11A2     7.824527    37A1     7.904687  
      38A1     8.541977    12A2     8.542106    39A1     8.604867  
      23B2     8.673856    23B1     8.690071    40A1     9.828245  
      24B2     9.901601    24B1     9.928876    41A1    10.518159  
      13A2    10.592783    42A1    10.592783    25B2    10.749516  
      25B1    10.749889    26B2    10.812442    26B1    10.883882  
      43A1    11.216528    14A2    11.217256    27B2    11.499789  
      27B1    11.553427    44A1    11.601546    28B2    11.835468  
      28B1    11.835610    15A2    12.002766    45A1    12.003092  
      46A1    12.336278    29B2    12.790967    16A2    12.807244  
      47A1    12.807675    29B1    12.844398    48A1    14.513258  
      30B2    14.666082    30B1    14.716717    49A1    16.973543  
      50A1    43.126606  

    Beta Occupied:                                                        

       1A1   -20.597206     2A1    -1.238902     3A1    -0.644853  
       1B1    -0.514881  

    Beta Virtual:                                                         

       4A1     0.028730     1B2     0.060086     5A1     0.115239  
       2B1     0.138737     6A1     0.165141     2B2     0.177241  
       3B1     0.218250     7A1     0.223419     3B2     0.232658  
       8A1     0.359391     1A2     0.481284     9A1     0.481426  
      10A1     0.510299     4B1     0.555083     4B2     0.555738  
       5B1     0.639827    11A1     0.648756     5B2     0.657893  
       2A2     0.679977    12A1     0.680398    13A1     0.719464  
       6B1     0.763617    14A1     0.799016     6B2     0.803102  
       7B1     1.173738     7B2     1.183924    15A1     1.242420  
       8B1     1.330445     8B2     1.330453    16A1     1.498706  
       3A2     1.519746    17A1     1.521195     9B2     1.546758  
       9B1     1.553209     4A2     1.587210    18A1     1.587834  
      19A1     1.637024    20A1     1.651958    10B1     1.702611  
      10B2     1.706497    11B1     1.726644    11B2     1.726687  
      21A1     1.863225     5A2     1.863586    22A1     1.890715  
      12B1     2.116404    12B2     2.122046    23A1     2.448431  
      13B1     2.666818    13B2     2.695604    14B2     2.980781  
      14B1     2.985848    24A1     3.003587     6A2     3.003626  
      25A1     3.057361    26A1     3.617274     7A2     3.661439  
      27A1     3.661440    15B2     3.803874    15B1     3.805444  
      16B2     3.930298    16B1     3.930303    28A1     4.018526  
      17B2     4.107319    17B1     4.107328     8A2     4.150810  
      29A1     4.151380    18B2     4.166678    18B1     4.176743  
      30A1     4.232410     9A2     4.331865    31A1     4.332446  
      32A1     4.423376    19B2     4.803962    19B1     4.809397  
      10A2     4.849315    33A1     4.849485    34A1     5.155802  
      20B2     5.639659    20B1     5.647450    35A1     5.929579  
      21B2     6.706232    21B1     6.706232    22B2     7.738841  
      22B1     7.746389    36A1     7.829223    11A2     7.829999  
      37A1     7.909187    38A1     8.542849    12A2     8.543043  
      39A1     8.612281    23B2     8.678638    23B1     8.689176  
      40A1     9.837085    24B2     9.921394    24B1     9.932424  
      41A1    10.528894    13A2    10.628230    42A1    10.628230  
      25B2    10.778015    25B1    10.778019    26B2    10.903276  
      26B1    10.903688    43A1    11.238311    14A2    11.238622  
      27B2    11.535075    27B1    11.561524    44A1    11.625513  
      28B2    11.892335    28B1    11.892340    15A2    12.044695  
      45A1    12.044719    46A1    12.354998    29B2    12.839014  
      29B1    12.856942    16A2    12.873831    47A1    12.873888  
      48A1    14.528368    30B2    14.711070    30B1    14.727911  
      49A1    16.986578    50A1    43.150488  

    Final Occupation by Irrep:
             A1    A2    B1    B2 
    DOCC [     3,    0,    1,    0 ]
    SOCC [     0,    0,    0,    1 ]

  @UHF Final Energy:   -75.42700479969912

   => Energetics <=

    Nuclear Repulsion Energy =              4.4661053246688098
    One-Electron Energy =                -112.8460692167542305
    Two-Electron Energy =                  32.9529590923862941
    Total Energy =                        -75.4270047996991195

  UHF NO Occupations:
  HONO-2 :    2 A1 1.9992954
  HONO-1 :    3 A1 1.9978837
  HONO-0 :    1 B2 1.0000000
  LUNO+0 :    4 A1 0.0021163
  LUNO+1 :    5 A1 0.0007046
  LUNO+2 :    2 B1 0.0006170
  LUNO+3 :    6 A1 0.0000012


Computation Completed


Properties will be evaluated at   0.000000,   0.000000,   0.000000 [a0]

Properties computed using the SCF density matrix

  Nuclear Dipole Moment: [e a0]
     X:     0.0000      Y:     0.0000      Z:     0.8357

  Electronic Dipole Moment: [e a0]
     X:     0.0000      Y:     0.0000      Z:    -0.1511

  Dipole Moment: [e a0]
     X:     0.0000      Y:     0.0000      Z:     0.6846     Total:     0.6846

  Dipole Moment: [D]
     X:     0.0000      Y:     0.0000      Z:     1.7401     Total:     1.7401


*** tstop() called on c1-17.compute.lan at Tue Feb 23 13:35:13 2021
Module time:
	user time   =       8.38 seconds =       0.14 minutes
	system time =       0.20 seconds =       0.00 minutes
	total time  =          9 seconds =       0.15 minutes
Total time:
	user time   =       8.38 seconds =       0.14 minutes
	system time =       0.20 seconds =       0.00 minutes
	total time  =          9 seconds =       0.15 minutes
 MINTS: Wrapper to libmints.
   by Justin Turney

   Calculation information:
      Number of threads:                 1
      Number of atoms:                   2
      Number of AO shells:              34
      Number of SO shells:              34
      Number of primitives:             54
      Number of atomic orbitals:       160
      Number of basis functions:       126

      Number of irreps:                  4
      Integral cutoff                 0.00e+00
      Number of functions per irrep: [  50   16   30   30 ]

 OEINTS: Overlap, kinetic, potential, dipole, and quadrupole integrals
         stored in file 35.

      Computing two-electron integrals...done
      Computed 7374138 non-zero two-electron integrals.
        Stored in file 33.


*** tstart() called on c1-17.compute.lan
*** at Tue Feb 23 13:35:15 2021


	Wfn Parameters:
	--------------------
	Wavefunction         = CCSD
	Number of irreps     = 4
	Number of MOs        = 126
	Number of active MOs = 126
	AO-Basis             = NONE
	Semicanonical        = false
	Reference            = UHF
	Print Level          = 1

	IRREP	# MOs	# FZDC	# DOCC	# SOCC	# VIRT	# FZVR
	-----	-----	------	------	------	------	------
	 A1	   50	    0	    3	    0	    47	    0
	 A2	   16	    0	    0	    0	    16	    0
	 B1	   30	    0	    1	    0	    29	    0
	 B2	   30	    0	    0	    1	    29	    0
	Transforming integrals...
	IWL integrals will be deleted.
	(OO|OO)...
	Presorting SO-basis two-electron integrals.
	Sorting File: SO Ints (nn|nn) nbuckets = 1
	Transforming the one-electron integrals and constructing Fock matrices
	Starting AA/AB first half-transformation.
	Sorting AA/AB half-transformed integrals.
	Starting BB first half-transformation.
	Sorting BB half-transformed integrals.
	First half integral transformation complete.
	Starting AA second half-transformation.
	Starting AB second half-transformation.
	Starting BB second half-transformation.
	Two-electron integral transformation complete.
	(OO|OV)...
	Starting AA second half-transformation.
	Starting AB second half-transformation.
	Starting BB second half-transformation.
	Two-electron integral transformation complete.
	(OO|VV)...
	Starting AA second half-transformation.
	Starting AB second half-transformation.
	Starting BB second half-transformation.
	Two-electron integral transformation complete.
	(OV|OO)...
	Starting AA/AB first half-transformation.
	Sorting AA/AB half-transformed integrals.
	Starting BB first half-transformation.
	Sorting BB half-transformed integrals.
	First half integral transformation complete.
	Starting AA second half-transformation.
	Starting AB second half-transformation.
	Starting BB second half-transformation.
	Two-electron integral transformation complete.
	(OV|OV)...
	Starting AA second half-transformation.
	Starting AB second half-transformation.
	Starting BB second half-transformation.
	Two-electron integral transformation complete.
	(OV|VV)...
	Starting AA second half-transformation.
	Starting AB second half-transformation.
	Starting BB second half-transformation.
	Two-electron integral transformation complete.
	(VV|OO)...
	Starting AA/AB first half-transformation.
	Sorting AA/AB half-transformed integrals.
	Starting BB first half-transformation.
	Sorting BB half-transformed integrals.
	First half integral transformation complete.
	Starting AA second half-transformation.
	Starting AB second half-transformation.
	Starting BB second half-transformation.
	Two-electron integral transformation complete.
	(VV|OV)...
	Starting AA second half-transformation.
	Starting AB second half-transformation.
	Starting BB second half-transformation.
	Two-electron integral transformation complete.
	(VV|VV)...
	Starting AA second half-transformation.
	Starting AB second half-transformation.
	Starting BB second half-transformation.
	Two-electron integral transformation complete.
	Frozen core energy     =      0.00000000000000

	Size of irrep 0 of <AB|CD> integrals:      4.052 (MW) /     32.417 (MB)
	Size of irrep 1 of <AB|CD> integrals:      2.538 (MW) /     20.301 (MB)
	Size of irrep 2 of <AB|CD> integrals:      3.338 (MW) /     26.703 (MB)
	Size of irrep 3 of <AB|CD> integrals:      3.338 (MW) /     26.703 (MB)
	Total:                                    13.266 (MW) /    106.125 (MB)

	Size of irrep 0 of <ab|cd> integrals:      4.170 (MW) /     33.358 (MB)
	Size of irrep 1 of <ab|cd> integrals:      2.631 (MW) /     21.047 (MB)
	Size of irrep 2 of <ab|cd> integrals:      3.397 (MW) /     27.173 (MB)
	Size of irrep 3 of <ab|cd> integrals:      3.512 (MW) /     28.095 (MB)
	Total:                                    13.709 (MW) /    109.673 (MB)

	Size of irrep 0 of <Ab|Cd> integrals:     17.439 (MW) /    139.512 (MB)
	Size of irrep 1 of <Ab|Cd> integrals:     10.336 (MW) /     82.690 (MB)
	Size of irrep 2 of <Ab|Cd> integrals:     13.469 (MW) /    107.751 (MB)
	Size of irrep 3 of <Ab|Cd> integrals:     13.697 (MW) /    109.579 (MB)
	Total:                                    54.942 (MW) /    439.532 (MB)

	Size of irrep 0 of <IA|BC> integrals:      0.825 (MW) /      6.602 (MB)
	Size of irrep 1 of <IA|BC> integrals:      0.338 (MW) /      2.702 (MB)
	Size of irrep 2 of <IA|BC> integrals:      0.548 (MW) /      4.385 (MB)
	Size of irrep 3 of <IA|BC> integrals:      0.548 (MW) /      4.385 (MB)
	Total:                                     2.259 (MW) /     18.073 (MB)

	Size of irrep 0 of <ia|bc> integrals:      0.715 (MW) /      5.720 (MB)
	Size of irrep 1 of <ia|bc> integrals:      0.253 (MW) /      2.024 (MB)
	Size of irrep 2 of <ia|bc> integrals:      0.494 (MW) /      3.951 (MB)
	Size of irrep 3 of <ia|bc> integrals:      0.397 (MW) /      3.178 (MB)
	Total:                                     1.859 (MW) /     14.874 (MB)

	Size of irrep 0 of <Ia|Bc> integrals:      0.835 (MW) /      6.682 (MB)
	Size of irrep 1 of <Ia|Bc> integrals:      0.344 (MW) /      2.752 (MB)
	Size of irrep 2 of <Ia|Bc> integrals:      0.550 (MW) /      4.404 (MB)
	Size of irrep 3 of <Ia|Bc> integrals:      0.566 (MW) /      4.530 (MB)
	Total:                                     2.296 (MW) /     18.368 (MB)

	Size of irrep 0 of <iA|bC> integrals:      0.710 (MW) /      5.679 (MB)
	Size of irrep 1 of <iA|bC> integrals:      0.248 (MW) /      1.980 (MB)
	Size of irrep 2 of <iA|bC> integrals:      0.492 (MW) /      3.934 (MB)
	Size of irrep 3 of <iA|bC> integrals:      0.381 (MW) /      3.050 (MB)
	Total:                                     1.830 (MW) /     14.644 (MB)

	Size of irrep 0 of tIjAb amplitudes:       0.042 (MW) /      0.334 (MB)
	Size of irrep 1 of tIjAb amplitudes:       0.003 (MW) /      0.026 (MB)
	Size of irrep 2 of tIjAb amplitudes:       0.022 (MW) /      0.176 (MB)
	Size of irrep 3 of tIjAb amplitudes:       0.011 (MW) /      0.089 (MB)
	Total:                                     0.078 (MW) /      0.625 (MB)

	Nuclear Rep. energy          =      4.46610532466881
	SCF energy                   =    -75.42700479969912
	One-electron energy          =   -112.84606921881223
	Two-electron (AA) energy     =      7.76236644927494
	Two-electron (BB) energy     =      4.64970237789627
	Two-electron (AB) energy     =     20.54089026727309
	Two-electron energy          =     32.95295909444430
	Reference energy             =    -75.42700479969915

*** tstop() called on c1-17.compute.lan at Tue Feb 23 13:35:34 2021
Module time:
	user time   =      11.23 seconds =       0.19 minutes
	system time =       7.58 seconds =       0.13 minutes
	total time  =         19 seconds =       0.32 minutes
Total time:
	user time   =      21.40 seconds =       0.36 minutes
	system time =       7.93 seconds =       0.13 minutes
	total time  =         30 seconds =       0.50 minutes
            **************************
            *                        *
            *        CCENERGY        *
            *                        *
            **************************

    Nuclear Rep. energy (wfn)     =    4.466105324668810
    SCF energy          (wfn)     =  -75.427004799699120
    Reference energy    (file100) =  -75.427004799699148

    Input parameters:
    -----------------
    Wave function   =     CCSD
    Reference wfn   =     UHF
    Brueckner       =     No
    Memory (Mbytes) =     10000.0
    Maxiter         =     50
    R_Convergence   =     1.0e-10
    E_Convergence   =     1.0e-10
    Restart         =     Yes
    DIIS            =     Yes
    AO Basis        =     NONE
    ABCD            =     NEW
    Cache Level     =     2
    Cache Type      =     LRU
    Print Level     =     1
    Num. of threads =     1
    # Amps to Print =     10
    Print MP2 Amps? =     No
    Analyze T2 Amps =     No
    Print Pair Ener =     No
    Local CC        =     No
    SCS-MP2         =     False
    SCSN-MP2        =     False
    SCS-CCSD        =     False

MP2 correlation energy -0.2492261549402582
                Solving CC Amplitude Equations
                ------------------------------
  Iter             Energy              RMS        T1Diag      D1Diag    New D1Diag    D2Diag
  ----     ---------------------    ---------   ----------  ----------  ----------   --------
     0        -0.249226154940258    0.000e+00    0.000000    0.000000    0.000000    0.000000
     1        -0.256256144653216    3.562e-02    0.008362    0.000000    0.000000    0.000000
     2        -0.260313083321329    1.153e-02    0.009490    0.000000    0.000000    0.000000
     3        -0.261211998295976    5.679e-03    0.011016    0.000000    0.000000    0.000000
     4        -0.261120116526824    1.931e-03    0.011317    0.000000    0.000000    0.000000
     5        -0.261133253544435    8.752e-04    0.011397    0.000000    0.000000    0.000000
     6        -0.261150241857337    3.121e-04    0.011385    0.000000    0.000000    0.000000
     7        -0.261150352670700    1.010e-04    0.011372    0.000000    0.000000    0.000000
     8        -0.261150657880172    3.503e-05    0.011370    0.000000    0.000000    0.000000
     9        -0.261150676213819    1.099e-05    0.011370    0.000000    0.000000    0.000000
    10        -0.261150541452197    4.290e-06    0.011370    0.000000    0.000000    0.000000
    11        -0.261150622596990    1.679e-06    0.011370    0.000000    0.000000    0.000000
    12        -0.261150628981498    5.722e-07    0.011370    0.000000    0.000000    0.000000
    13        -0.261150640980223    2.161e-07    0.011370    0.000000    0.000000    0.000000
    14        -0.261150645670057    8.564e-08    0.011370    0.000000    0.000000    0.000000
    15        -0.261150645582208    3.578e-08    0.011370    0.000000    0.000000    0.000000
    16        -0.261150645797813    1.607e-08    0.011370    0.000000    0.000000    0.000000
    17        -0.261150645770776    7.567e-09    0.011370    0.000000    0.000000    0.000000
    18        -0.261150645805494    3.012e-09    0.011370    0.000000    0.000000    0.000000
    19        -0.261150645885825    1.184e-09    0.011370    0.000000    0.000000    0.000000
    20        -0.261150645900748    4.595e-10    0.011370    0.000000    0.000000    0.000000
    21        -0.261150645903852    1.994e-10    0.011370    0.000000    0.000000    0.000000
    22        -0.261150645903902    7.849e-11    0.011370    0.000000    0.000000    0.000000

    Iterations converged.


    Largest TIA Amplitudes:
              4  92        -0.0114479378
              3  63        -0.0110135881
              3  64        -0.0073699933
              4  93        -0.0072894146
              4  95        -0.0068319459
              3  66        -0.0056142219
              4  96        -0.0042269328
              4  94        -0.0038325728
              1   9        -0.0038063283
              2  21         0.0037964188

    Largest Tia Amplitudes:
              3  63        -0.0082682648
              3  64        -0.0065317257
              1  13        -0.0054020466
              1  10        -0.0050557811
              1   4        -0.0048991649
              3  74         0.0047120243
              2  18         0.0043163554
              2  21         0.0041761035
              3  65        -0.0039940717
              2  15         0.0034552971

    Largest TIJAB Amplitudes:
      4   3  49  12        -0.0113331480
      4   2  95  10         0.0087085849
      4   3  95  67        -0.0086246286
      3   2  67  10         0.0084843869
      4   3  95  66        -0.0082131145
      3   2  66  10         0.0079773984
      4   3  96  67        -0.0079044464
      3   2  68   6        -0.0077567856
      4   2  96  10         0.0077194156
      4   2  95   4         0.0075701736

    Largest Tijab Amplitudes:
      3   2  67  10         0.0087708942
      3   2  66  10         0.0077749744
      3   2  67   4         0.0077348263
      3   2  68   6        -0.0074876628
      3   1  92  49        -0.0073273938
      3   2  65   6        -0.0069693656
      3   2  66   4         0.0068005758
      3   2  68  11         0.0067315898
      3   2  68  10         0.0065625723
      3   2  63  10         0.0065102341

    Largest TIjAb Amplitudes:
      2   2  10  10        -0.0229883492
      2   2   4  10        -0.0203673900
      2   2   4   4        -0.0201705298
      2   2  10   4        -0.0196035819
      3   3  67  67        -0.0175149698
      4   1  12  92        -0.0157571845
      3   3  66  67        -0.0153091613
      3   1  49  92         0.0149023649
      3   3  67  66        -0.0141396591
      3   3  66  66        -0.0134182811

    SCF energy       (wfn)                    =  -75.427004799699120
    Reference energy (file100)                =  -75.427004799699148

    Opposite-spin MP2 correlation energy      =   -0.194529928658609
    Same-spin MP2 correlation energy          =   -0.054696226281649
    MP2 correlation energy                    =   -0.249226154940258
      * MP2 total energy                      =  -75.676230954639408

    Opposite-spin CCSD correlation energy     =   -0.209264612464267
    Same-spin CCSD correlation energy         =   -0.051886033439634
    CCSD correlation energy                   =   -0.261150645903902
      * CCSD total energy                     =  -75.688155445603044


			**************************
			*                        *
			*         CCHBAR         *
			*                        *
			**************************


			**************************
			*        CCLAMBDA        *
			**************************


	Nuclear Rep. energy (wfn)     =    4.466105324668810
	Reference           (wfn)     =                    2
	SCF energy          (wfn)     =  -75.427004799699120
	Reference energy    (CC_INFO) =  -75.427004799699148
	CCSD energy         (CC_INFO) =   -0.261150645903902
	Total CCSD energy   (CC_INFO) =  -75.688155445603044

	Input parameters:
	-----------------
	Maxiter           =     50
	Convergence       = 1.0e-07
	Restart           =     No
	Cache Level       =     2
	Model III         =     No
	DIIS              =     Yes
	AO Basis          =     No
	ABCD              =     NEW
	Local CC          =     No
	Parameters for left-handed eigenvectors:
	    Irr   Root  Ground-State?    EOM energy        R0
	  1   0     0        Yes       0.0000000000   1.0000000000
	Labels for eigenvector 1:
	LIA 0 -1, Lia 0 -1, LIJAB 0 -1, Lijab 0 -1, LIjAb 0 -1, 2LIjAb - LIjbA 0 -1
	Symmetry of left-hand state: B2
	Symmetry of left-hand eigenvector: A1

	          Solving Lambda Equations
	          ------------------------
	Iter     PseudoEnergy or Norm         RMS  
	----     ---------------------     --------
	   0        -0.261156580510197    0.000e+00
	   1        -0.256446044733330    8.383e-03
	   2        -0.255991603810879    1.858e-03
	   3        -0.255893262150546    9.052e-04
	   4        -0.255891766597495    2.590e-04
	   5        -0.255897252004346    7.673e-05
	   6        -0.255895456694268    2.941e-05
	   7        -0.255894699058998    1.374e-05
	   8        -0.255894822645928    4.374e-06
	   9        -0.255894784764118    1.439e-06
	  10        -0.255894776097334    4.787e-07
	  11        -0.255894762832674    1.649e-07
	  12        -0.255894763749778    5.871e-08

	Largest LIA Amplitudes:
	          4  92        -0.0087035952
	          3  63        -0.0079146601
	          4  93        -0.0054812843
	          3  64        -0.0052137726
	          4  95        -0.0050461312
	          3  66        -0.0039789466
	          2  21         0.0030968738
	          1   9        -0.0030826732
	          1   2         0.0030220887
	          4  96        -0.0029915858

	Largest Lia Amplitudes:
	          1  13        -0.0050775169
	          1   4        -0.0048743186
	          3  63        -0.0048030404
	          1  10        -0.0046823437
	          2  10        -0.0041957313
	          3  74         0.0041383528
	          3  64        -0.0040714111
	          2  18         0.0039838727
	          2  21         0.0035802019
	          2  15         0.0031271244

	Largest LIJAB Amplitudes:
	  4   3  49  12        -0.0110691805
	  4   2  95  10         0.0085630716
	  4   3  95  67        -0.0085048942
	  3   2  67  10         0.0083062960
	  4   3  95  66        -0.0080911233
	  3   2  66  10         0.0078028829
	  4   3  96  67        -0.0077825269
	  4   2  96  10         0.0075919626
	  3   2  68   6        -0.0075048334
	  4   2  95   4         0.0074101122

	Largest Lijab Amplitudes:
	  3   2  67  10         0.0085167508
	  3   2  66  10         0.0075316058
	  3   2  67   4         0.0074572859
	  3   2  68   6        -0.0072225971
	  3   1  92  49        -0.0071447384
	  3   2  65   6        -0.0066911911
	  3   2  66   4         0.0065384620
	  3   2  68  11         0.0065307417
	  3   2  68  10         0.0063708895
	  3   2  74  10         0.0063028396

	Largest LIjAb Amplitudes:
	  2   2  10  10        -0.0224545530
	  2   2   4  10        -0.0198266075
	  2   2   4   4        -0.0195448527
	  2   2  10   4        -0.0190906232
	  3   3  67  67        -0.0171432534
	  4   1  12  92        -0.0154103797
	  3   3  66  67        -0.0150026330
	  3   1  49  92         0.0145421126
	  3   3  67  66        -0.0138539911
	  3   3  66  66        -0.0131328280

	Iterations converged.

	Overlap <L|e^T> =        0.94633846525

			**************************
			*                        *
			*        CCDENSITY       *
			*                        *
			**************************


	Input parameters:
	-----------------
	Wave function    =   CCSD
	Reference wfn    =   UHF
	Dertype          = 1
	Tolerance        = 1.0e-14
	Cache Level      = 2
	AO Basis         = No
	OPDM Only        = No
	Relax OPDM       = Yes
	Compute Xi       = No
	Use Zeta         = No
	Xi connected     = Yes
	Compute NO       = No

	Nuclear Rep. energy (wfn)     =    4.466105324668810
	SCF energy          (wfn)     =  -75.427004799699120
	Reference energy    (file100) =  -75.427004799699148
	CCSD energy         (CC_INFO) =   -0.261150645903902
	Total CCSD energy   (CC_INFO) =  -75.688155445603044
	Number of States = 1

	Ground?  State     EOM Energy       R0
	  Yes     0 A1    0.0000000000   1.00000000
  Cartesian Displacement SALCs
  By SALC:
  Number of SALCs: 2, nirreps: A1
  Project out translations: False
  Project out rotations: False
	irrep = 0, ncomponent = 1
		0: atom 0, direction z, coef 1.000000
	irrep = 0, ncomponent = 1
		0: atom 1, direction z, coef 1.000000

  By Atomic Center:
  Number of atomic centers: 2
   Atomic Center 0:
	x component, size = 0
	y component, size = 0
	z component, size = 1
		0: salc 0, irrep 0, coef 1.000000
   Atomic Center 1:
	x component, size = 0
	y component, size = 0
	z component, size = 1
		0: salc 1, irrep 0, coef 1.000000

    Molecular point group: c2v
    Full point group: C_inf_v

    Geometry (in Bohr), charge = 0, multiplicity = 2:

       Center              X                  Y                   Z       
    ------------   -----------------  -----------------  -----------------
         O            0.000000000000     0.000000000000    -0.106176220599
         H            0.000000000000     0.000000000000     1.685093670823

	Presorting MO-basis TPDMs.
	Sorting File: MO TPDM (AA|AA) nbuckets = 1
	Sorting File: MO TPDM (AA|aa) nbuckets = 1
	Sorting File: MO TPDM (aa|aa) nbuckets = 1
	Starting first half-transformation.
	Sorting half-transformed TPDMs.
	First half integral transformation complete.


  -Nuclear Repulsion Energy 1st Derivatives:
     Atom            X                  Y                   Z
    ------   -----------------  -----------------  -----------------
       1        0.000000000000     0.000000000000     2.493262096379
       2        0.000000000000     0.000000000000    -2.493262096379


  -Core Hamiltonian Gradient:
     Atom            X                  Y                   Z
    ------   -----------------  -----------------  -----------------
       1        0.000000000000     0.000000000000    -4.681048398238
       2        0.000000000000     0.000000000000     4.681048398238


  -Lagrangian contribution to gradient:
     Atom            X                  Y                   Z
    ------   -----------------  -----------------  -----------------
       1        0.000000000000     0.000000000000     0.200139150848
       2        0.000000000000     0.000000000000    -0.200139150848


  -Two-electron contribution to gradient:
     Atom            X                  Y                   Z
    ------   -----------------  -----------------  -----------------
       1        0.000000000000     0.000000000000     2.007044347584
       2        0.000000000000     0.000000000000    -2.007044347584


  -Total gradient:
     Atom            X                  Y                   Z
    ------   -----------------  -----------------  -----------------
       1        0.000000000000     0.000000000000     0.019397196574
       2        0.000000000000     0.000000000000    -0.019397196574


			-----------------------------------------
			 OPTKING 2.0: for geometry optimizations 
			  - R.A. King,  Bethel University        
			-----------------------------------------

	Internal coordinates to be generated automatically.
	Detected frag 1 with atoms:  1 2
	---Fragment 1 Bond Connectivity---
	 1 : 2
	 2 : 1

	---Fragment 1 Geometry and Gradient---
	 O           0.0000000000        0.0000000000       -0.1061762206
	 H           0.0000000000        0.0000000000        1.6850936708
	             0.0000000000        0.0000000000        0.0193971966
	             0.0000000000        0.0000000000       -0.0193971966

	Previous optimization step data not found.  Starting new optimization.

	---Fragment 1 Intrafragment Coordinates---
	 - Coordinate -           - BOHR/RAD -       - ANG/DEG -
	 R(1,2)           =         1.791270	       0.947899

	Current energy   :       -75.6881554456

	Generating empirical Hessian (Schlegel '84) for each fragment.
	Taking RFO optimization step.
	Going to follow RFO solution 1.
	Using RFO vector 1.
	Norm of target step-size    0.03331
	Projected energy change by RFO approximation:        -0.0000911777

	Back-transformation to cartesian coordinates...
	Successfully converged to displaced geometry.

	--- Internal Coordinate Step in ANG or DEG, aJ/ANG or AJ/DEG ---
	 ---------------------------------------------------------------------------
	   Coordinate                Previous        Force       Change         New 
	   ----------                --------       ------       ------       ------
	    1 R(1,2)          =      0.947899     0.159808     0.017629     0.965529
	 ---------------------------------------------------------------------------
	Successfully symmetrized geometry.

  ==> Convergence Check <==

  Measures of convergence in internal coordinates in au.
  Criteria marked as inactive (o), active & met (*), and active & unmet ( ).
  --------------------------------------------------------------------------------------------- ~
   Step     Total Energy     Delta E     MAX Force     RMS Force      MAX Disp      RMS Disp    ~
  --------------------------------------------------------------------------------------------- ~
    Convergence Criteria             o    2.00e-06 *    1.00e-06 *    6.00e-06 *    4.00e-06 *  ~
  --------------------------------------------------------------------------------------------- ~
      1     -75.68815545   -7.57e+01 o    1.94e-02      1.94e-02      3.33e-02      3.33e-02    ~
  ---------------------------------------------------------------------------------------------

	Writing optimization data to binary file.
	Structure for next step:
	Cartesian Geometry (in Angstrom)
	    O     0.0000000000   0.0000000000  -0.0650006938
	    H     0.0000000000   0.0000000000   0.9005278227
			--------------------------
			 OPTKING Finished Execution 
			--------------------------

    Structure for next step:
    Molecular point group: c2v
    Full point group: C_inf_v

    Geometry (in Angstrom), charge = 0, multiplicity = 2:

    O       
    H             1          R1

    R1        =    0.9655285203

gradient() will perform analytic gradient computation.

*** tstart() called on c1-17.compute.lan
*** at Tue Feb 23 13:37:32 2021

   => Loading Basis Set <=

    Name: AUG-CC-PVQZ
    Role: ORBITAL
    Keyword: BASIS
    atoms 1 entry O          line   423 file /apps/gb/PSI4/1.4.0/share/psi4/basis/aug-cc-pvqz.gbs 
    atoms 2 entry H          line    40 file /apps/gb/PSI4/1.4.0/share/psi4/basis/aug-cc-pvqz.gbs 


         ---------------------------------------------------------
                                   SCF
               by Justin Turney, Rob Parrish, Andy Simmonett
                          and Daniel G. A. Smith
                              UHF Reference
                        1 Threads,   9536 MiB Core
         ---------------------------------------------------------

  ==> Geometry <==

    Molecular point group: c2v
    Full point group: C_inf_v

    Geometry (in Angstrom), charge = 0, multiplicity = 2:

       Center              X                  Y                   Z               Mass       
    ------------   -----------------  -----------------  -----------------  -----------------
         O            0.000000000000     0.000000000000    -0.057231001124    15.994914619570
         H            0.000000000000     0.000000000000     0.908297519209     1.007825032230

  Running in c2v symmetry.

  Rotational constants: A = ************  B =     19.07296  C =     19.07296 [cm^-1]
  Rotational constants: A = ************  B = 571792.98568  C = 571792.98568 [MHz]
  Nuclear repulsion =    4.384559954684666

  Charge       = 0
  Multiplicity = 2
  Electrons    = 9
  Nalpha       = 5
  Nbeta        = 4

  ==> Algorithm <==

  SCF Algorithm Type is PK.
  DIIS enabled.
  MOM disabled.
  Fractional occupation disabled.
  Guess Type is READ.
  Energy threshold   = 1.00e-10
  Density threshold  = 1.00e-10
  Integral threshold = 0.00e+00

  ==> Primary Basis <==

  Basis Set: AUG-CC-PVQZ
    Blend: AUG-CC-PVQZ
    Number of shells: 34
    Number of basis function: 126
    Number of Cartesian functions: 160
    Spherical Harmonics?: true
    Max angular momentum: 4

   => Loading Basis Set <=

    Name: AUG-CC-PVQZ
    Role: ORBITAL
    Keyword: BASIS
    atoms 1 entry O          line   423 file /apps/gb/PSI4/1.4.0/share/psi4/basis/aug-cc-pvqz.gbs 
    atoms 2 entry H          line    40 file /apps/gb/PSI4/1.4.0/share/psi4/basis/aug-cc-pvqz.gbs 

  Reading orbitals from file 180, no projection.

  ==> Pre-Iterations <==

   -------------------------------------------------------
    Irrep   Nso     Nmo     Nalpha   Nbeta   Ndocc  Nsocc
   -------------------------------------------------------
     A1        50      50       0       0       0       0
     A2        16      16       0       0       0       0
     B1        30      30       0       0       0       0
     B2        30      30       0       0       0       0
   -------------------------------------------------------
    Total     126     126       5       4       4       1
   -------------------------------------------------------

  ==> Integral Setup <==

  Using in-core PK algorithm.
   Calculation information:
      Number of atoms:                   2
      Number of AO shells:              34
      Number of primitives:             54
      Number of atomic orbitals:       160
      Number of basis functions:       126

      Integral cutoff                 1.00e-12
      Number of threads:                 1

  Performing in-core PK
  Using 64024002 doubles for integral storage.
  We computed 177310 shell quartets total.
  Whereas there are 177310 unique shell quartets.

  ==> DiskJK: Disk-Based J/K Matrices <==

    J tasked:                  Yes
    K tasked:                  Yes
    wK tasked:                  No
    Memory [MiB]:             7152
    Schwarz Cutoff:          1E-12

    OpenMP threads:              1

  Minimum eigenvalue in the overlap matrix is 1.3469703547E-04.
  Using Symmetric Orthogonalization.

  SCF Guess: Orbitals guess was supplied from a previous computation.

  ==> Iterations <==

                        Total Energy        Delta E     RMS |[F,P]|

   @UHF iter   0:   -75.41950698303265   -7.54195e+01   6.30115e-04 
   @UHF iter   1:   -75.42676896573076   -7.26198e-03   6.82544e-05 DIIS
   @UHF iter   2:   -75.42677824263768   -9.27691e-06   1.48214e-05 DIIS
   @UHF iter   3:   -75.42677898770270   -7.45065e-07   5.88021e-06 DIIS
   @UHF iter   4:   -75.42677920148836   -2.13786e-07   2.18019e-06 DIIS
   @UHF iter   5:   -75.42677922897622   -2.74879e-08   1.20705e-06 DIIS
   @UHF iter   6:   -75.42677923893123   -9.95502e-09   5.79605e-07 DIIS
   @UHF iter   7:   -75.42677924208007   -3.14884e-09   1.34415e-07 DIIS
   @UHF iter   8:   -75.42677924221974   -1.39664e-10   1.60207e-08 DIIS
   @UHF iter   9:   -75.42677924222124   -1.50635e-12   4.07780e-09 DIIS
   @UHF iter  10:   -75.42677924222134   -9.94760e-14   1.24776e-09 DIIS
   @UHF iter  11:   -75.42677924222129    5.68434e-14   2.41034e-10 DIIS
   @UHF iter  12:   -75.42677924222127    1.42109e-14   5.37097e-11 DIIS
  Energy and wave function converged.


  ==> Post-Iterations <==

   @Spin Contamination Metric:   7.090791669E-03
   @S^2 Expected:                7.500000000E-01
   @S^2 Observed:                7.570907917E-01
   @S   Expected:                5.000000000E-01
   @S   Observed:                5.000000000E-01

    Orbital Energies [Eh]
    ---------------------

    Alpha Occupied:                                                       

       1A1   -20.638296     2A1    -1.390542     3A1    -0.684082  
       1B2    -0.659027     1B1    -0.561935  

    Alpha Virtual:                                                        

       4A1     0.027566     5A1     0.113370     2B2     0.130246  
       2B1     0.137621     6A1     0.161548     3B2     0.212913  
       3B1     0.217484     7A1     0.220535     8A1     0.348314  
       9A1     0.472036     1A2     0.473359    10A1     0.506847  
       4B2     0.545122     4B1     0.555570     5B2     0.621456  
       5B1     0.637988    11A1     0.647272     2A2     0.680466  
      12A1     0.681167    13A1     0.707683     6B2     0.736187  
       6B1     0.758537    14A1     0.784045     7B2     1.148357  
       7B1     1.166891    15A1     1.223193     8B2     1.322286  
       8B1     1.322296    16A1     1.471413     3A2     1.475235  
      17A1     1.485327     9B2     1.533275     9B1     1.553933  
      18A1     1.574643     4A2     1.575070    19A1     1.626461  
      20A1     1.648209    10B2     1.687927    10B1     1.703735  
      11B2     1.722450    11B1     1.722849     5A2     1.863634  
      21A1     1.863793    22A1     1.889084    12B2     2.093256  
      12B1     2.118658    23A1     2.421236    13B2     2.590188  
      13B1     2.636731    14B2     2.954989     6A2     2.966810  
      24A1     2.966952    14B1     2.973259    25A1     3.040328  
      26A1     3.601366     7A2     3.648678    27A1     3.648678  
      15B2     3.753725    15B1     3.796390    16B2     3.906513  
      16B1     3.906745    28A1     3.988831    17B2     4.076059  
      17B1     4.076383     8A2     4.137231    29A1     4.140154  
      18B2     4.147887    18B1     4.185786    30A1     4.195975  
       9A2     4.255148    31A1     4.258694    32A1     4.395970  
      19B2     4.740293    19B1     4.782453    10A2     4.803880  
      33A1     4.804383    34A1     5.154064    20B2     5.555534  
      20B1     5.595253    35A1     5.853216    21B2     6.688593  
      21B1     6.688593    22B2     7.729772    22B1     7.743166  
      36A1     7.759385    11A2     7.760252    37A1     7.846831  
      38A1     8.537682    12A2     8.538084    39A1     8.552681  
      23B2     8.686626    23B1     8.702148    40A1     9.767537  
      24B2     9.824070    24B1     9.850893    41A1    10.593539  
      13A2    10.593540    42A1    10.629749    25B2    10.742633  
      25B1    10.742843    26B2    10.823573    26B1    10.895174  
      43A1    11.179200    14A2    11.179943    27B2    11.499555  
      27B1    11.552927    44A1    11.586751    28B2    11.835757  
      28B1    11.835888    45A1    11.997064    15A2    11.998023  
      46A1    12.231512    29B2    12.713863    29B1    12.767205  
      16A2    12.796513    47A1    12.796962    48A1    14.377583  
      30B2    14.518031    30B1    14.569223    49A1    16.855860  
      50A1    43.000285  

    Beta Occupied:                                                        

       1A1   -20.598516     2A1    -1.232368     3A1    -0.640116  
       1B1    -0.513942  

    Beta Virtual:                                                         

       4A1     0.028592     1B2     0.060530     5A1     0.115126  
       2B1     0.139220     6A1     0.164588     2B2     0.178172  
       3B1     0.217505     7A1     0.223466     3B2     0.231836  
       8A1     0.356066     1A2     0.481530     9A1     0.481673  
      10A1     0.508595     4B1     0.553974     4B2     0.554692  
       5B1     0.641699    11A1     0.647854     5B2     0.659448  
       2A2     0.681120    12A1     0.681525    13A1     0.718997  
       6B1     0.764740    14A1     0.793959     6B2     0.805159  
       7B1     1.166884     7B2     1.176260    15A1     1.240508  
       8B1     1.329958     8B2     1.329966    16A1     1.489708  
       3A2     1.520192    17A1     1.521465     9B2     1.547380  
       9B1     1.553768     4A2     1.583636    18A1     1.584132  
      19A1     1.635089    20A1     1.650284    10B1     1.706475  
      10B2     1.710552    11B1     1.723999    11B2     1.724091  
      21A1     1.869709     5A2     1.870043    22A1     1.899034  
      12B1     2.122719    12B2     2.127677    23A1     2.428609  
      13B1     2.650408    13B2     2.680038    14B2     2.966606  
      14B1     2.971763    24A1     2.975161     6A2     2.975192  
      25A1     3.047736    26A1     3.617751     7A2     3.662197  
      27A1     3.662198    15B2     3.804563    15B1     3.806701  
      16B2     3.922341    16B1     3.922345    28A1     4.010849  
      17B1     4.107120    17B2     4.107120     8A2     4.155475  
      29A1     4.155937    18B2     4.179776    18B1     4.189674  
      30A1     4.234958     9A2     4.322504    31A1     4.323235  
      32A1     4.402340    19B2     4.787323    19B1     4.791554  
      10A2     4.836038    33A1     4.836205    34A1     5.168519  
      20B2     5.594378    20B1     5.602628    35A1     5.873394  
      21B2     6.689867    21B1     6.689867    22B2     7.734484  
      22B1     7.741968    36A1     7.764812    11A2     7.765489  
      37A1     7.851743    38A1     8.538026    12A2     8.538551  
      39A1     8.559148    23B2     8.691139    23B1     8.701146  
      40A1     9.775593    24B2     9.842997    24B1     9.854255  
      41A1    10.629020    13A2    10.629020    42A1    10.641346  
      25B2    10.770964    25B1    10.770967    26B2    10.915095  
      26B1    10.915195    43A1    11.201079    14A2    11.201398  
      27B2    11.534860    27B1    11.561037    44A1    11.610072  
      28B2    11.892744    28B1    11.892748    45A1    12.039772  
      15A2    12.039981    46A1    12.250350    29B2    12.761498  
      29B1    12.779789    16A2    12.863525    47A1    12.863582  
      48A1    14.392806    30B2    14.564433    30B1    14.580864  
      49A1    16.869015    50A1    43.024351  

    Final Occupation by Irrep:
             A1    A2    B1    B2 
    DOCC [     3,    0,    1,    0 ]
    SOCC [     0,    0,    0,    1 ]

  @UHF Final Energy:   -75.42677924222127

   => Energetics <=

    Nuclear Repulsion Energy =              4.3845599546846659
    One-Electron Energy =                -112.7038542819942109
    Two-Electron Energy =                  32.8925150850882630
    Total Energy =                        -75.4267792422212864

  UHF NO Occupations:
  HONO-2 :    2 A1 1.9992193
  HONO-1 :    3 A1 1.9978591
  HONO-0 :    1 B2 1.0000000
  LUNO+0 :    4 A1 0.0021409
  LUNO+1 :    5 A1 0.0007807
  LUNO+2 :    2 B1 0.0006253
  LUNO+3 :    6 A1 0.0000012


Computation Completed


Properties will be evaluated at   0.000000,   0.000000,   0.000000 [a0]

Properties computed using the SCF density matrix

  Nuclear Dipole Moment: [e a0]
     X:     0.0000      Y:     0.0000      Z:     0.8512

  Electronic Dipole Moment: [e a0]
     X:     0.0000      Y:     0.0000      Z:    -0.1610

  Dipole Moment: [e a0]
     X:     0.0000      Y:     0.0000      Z:     0.6902     Total:     0.6902

  Dipole Moment: [D]
     X:     0.0000      Y:     0.0000      Z:     1.7543     Total:     1.7543


*** tstop() called on c1-17.compute.lan at Tue Feb 23 13:37:38 2021
Module time:
	user time   =       6.23 seconds =       0.10 minutes
	system time =       0.22 seconds =       0.00 minutes
	total time  =          6 seconds =       0.10 minutes
Total time:
	user time   =      99.05 seconds =       1.65 minutes
	system time =      53.69 seconds =       0.89 minutes
	total time  =        154 seconds =       2.57 minutes
 MINTS: Wrapper to libmints.
   by Justin Turney

   Calculation information:
      Number of threads:                 1
      Number of atoms:                   2
      Number of AO shells:              34
      Number of SO shells:              34
      Number of primitives:             54
      Number of atomic orbitals:       160
      Number of basis functions:       126

      Number of irreps:                  4
      Integral cutoff                 0.00e+00
      Number of functions per irrep: [  50   16   30   30 ]

 OEINTS: Overlap, kinetic, potential, dipole, and quadrupole integrals
         stored in file 35.

      Computing two-electron integrals...done
      Computed 7374126 non-zero two-electron integrals.
        Stored in file 33.


*** tstart() called on c1-17.compute.lan
*** at Tue Feb 23 13:37:40 2021


	Wfn Parameters:
	--------------------
	Wavefunction         = CCSD
	Number of irreps     = 4
	Number of MOs        = 126
	Number of active MOs = 126
	AO-Basis             = NONE
	Semicanonical        = false
	Reference            = UHF
	Print Level          = 1

	IRREP	# MOs	# FZDC	# DOCC	# SOCC	# VIRT	# FZVR
	-----	-----	------	------	------	------	------
	 A1	   50	    0	    3	    0	    47	    0
	 A2	   16	    0	    0	    0	    16	    0
	 B1	   30	    0	    1	    0	    29	    0
	 B2	   30	    0	    0	    1	    29	    0
	Transforming integrals...
	IWL integrals will be deleted.
	(OO|OO)...
	Presorting SO-basis two-electron integrals.
	Sorting File: SO Ints (nn|nn) nbuckets = 1
	Transforming the one-electron integrals and constructing Fock matrices
	Starting AA/AB first half-transformation.
	Sorting AA/AB half-transformed integrals.
	Starting BB first half-transformation.
	Sorting BB half-transformed integrals.
	First half integral transformation complete.
	Starting AA second half-transformation.
	Starting AB second half-transformation.
	Starting BB second half-transformation.
	Two-electron integral transformation complete.
	(OO|OV)...
	Starting AA second half-transformation.
	Starting AB second half-transformation.
	Starting BB second half-transformation.
	Two-electron integral transformation complete.
	(OO|VV)...
	Starting AA second half-transformation.
	Starting AB second half-transformation.
	Starting BB second half-transformation.
	Two-electron integral transformation complete.
	(OV|OO)...
	Starting AA/AB first half-transformation.
	Sorting AA/AB half-transformed integrals.
	Starting BB first half-transformation.
	Sorting BB half-transformed integrals.
	First half integral transformation complete.
	Starting AA second half-transformation.
	Starting AB second half-transformation.
	Starting BB second half-transformation.
	Two-electron integral transformation complete.
	(OV|OV)...
	Starting AA second half-transformation.
	Starting AB second half-transformation.
	Starting BB second half-transformation.
	Two-electron integral transformation complete.
	(OV|VV)...
	Starting AA second half-transformation.
	Starting AB second half-transformation.
	Starting BB second half-transformation.
	Two-electron integral transformation complete.
	(VV|OO)...
	Starting AA/AB first half-transformation.
	Sorting AA/AB half-transformed integrals.
	Starting BB first half-transformation.
	Sorting BB half-transformed integrals.
	First half integral transformation complete.
	Starting AA second half-transformation.
	Starting AB second half-transformation.
	Starting BB second half-transformation.
	Two-electron integral transformation complete.
	(VV|OV)...
	Starting AA second half-transformation.
	Starting AB second half-transformation.
	Starting BB second half-transformation.
	Two-electron integral transformation complete.
	(VV|VV)...
	Starting AA second half-transformation.
	Starting AB second half-transformation.
	Starting BB second half-transformation.
	Two-electron integral transformation complete.
	Frozen core energy     =      0.00000000000000

	Size of irrep 0 of <AB|CD> integrals:      4.052 (MW) /     32.417 (MB)
	Size of irrep 1 of <AB|CD> integrals:      2.538 (MW) /     20.301 (MB)
	Size of irrep 2 of <AB|CD> integrals:      3.338 (MW) /     26.703 (MB)
	Size of irrep 3 of <AB|CD> integrals:      3.338 (MW) /     26.703 (MB)
	Total:                                    13.266 (MW) /    106.125 (MB)

	Size of irrep 0 of <ab|cd> integrals:      4.170 (MW) /     33.358 (MB)
	Size of irrep 1 of <ab|cd> integrals:      2.631 (MW) /     21.047 (MB)
	Size of irrep 2 of <ab|cd> integrals:      3.397 (MW) /     27.173 (MB)
	Size of irrep 3 of <ab|cd> integrals:      3.512 (MW) /     28.095 (MB)
	Total:                                    13.709 (MW) /    109.673 (MB)

	Size of irrep 0 of <Ab|Cd> integrals:     17.439 (MW) /    139.512 (MB)
	Size of irrep 1 of <Ab|Cd> integrals:     10.336 (MW) /     82.690 (MB)
	Size of irrep 2 of <Ab|Cd> integrals:     13.469 (MW) /    107.751 (MB)
	Size of irrep 3 of <Ab|Cd> integrals:     13.697 (MW) /    109.579 (MB)
	Total:                                    54.942 (MW) /    439.532 (MB)

	Size of irrep 0 of <IA|BC> integrals:      0.825 (MW) /      6.602 (MB)
	Size of irrep 1 of <IA|BC> integrals:      0.338 (MW) /      2.702 (MB)
	Size of irrep 2 of <IA|BC> integrals:      0.548 (MW) /      4.385 (MB)
	Size of irrep 3 of <IA|BC> integrals:      0.548 (MW) /      4.385 (MB)
	Total:                                     2.259 (MW) /     18.073 (MB)

	Size of irrep 0 of <ia|bc> integrals:      0.715 (MW) /      5.720 (MB)
	Size of irrep 1 of <ia|bc> integrals:      0.253 (MW) /      2.024 (MB)
	Size of irrep 2 of <ia|bc> integrals:      0.494 (MW) /      3.951 (MB)
	Size of irrep 3 of <ia|bc> integrals:      0.397 (MW) /      3.178 (MB)
	Total:                                     1.859 (MW) /     14.874 (MB)

	Size of irrep 0 of <Ia|Bc> integrals:      0.835 (MW) /      6.682 (MB)
	Size of irrep 1 of <Ia|Bc> integrals:      0.344 (MW) /      2.752 (MB)
	Size of irrep 2 of <Ia|Bc> integrals:      0.550 (MW) /      4.404 (MB)
	Size of irrep 3 of <Ia|Bc> integrals:      0.566 (MW) /      4.530 (MB)
	Total:                                     2.296 (MW) /     18.368 (MB)

	Size of irrep 0 of <iA|bC> integrals:      0.710 (MW) /      5.679 (MB)
	Size of irrep 1 of <iA|bC> integrals:      0.248 (MW) /      1.980 (MB)
	Size of irrep 2 of <iA|bC> integrals:      0.492 (MW) /      3.934 (MB)
	Size of irrep 3 of <iA|bC> integrals:      0.381 (MW) /      3.050 (MB)
	Total:                                     1.830 (MW) /     14.644 (MB)

	Size of irrep 0 of tIjAb amplitudes:       0.042 (MW) /      0.334 (MB)
	Size of irrep 1 of tIjAb amplitudes:       0.003 (MW) /      0.026 (MB)
	Size of irrep 2 of tIjAb amplitudes:       0.022 (MW) /      0.176 (MB)
	Size of irrep 3 of tIjAb amplitudes:       0.011 (MW) /      0.089 (MB)
	Total:                                     0.078 (MW) /      0.625 (MB)

	Nuclear Rep. energy          =      4.38455995468467
	SCF energy                   =    -75.42677924222127
	One-electron energy          =   -112.70385428199599
	Two-electron (AA) energy     =      7.75081554185547
	Two-electron (BB) energy     =      4.63648522777922
	Two-electron (AB) energy     =     20.50521431545534
	Two-electron energy          =     32.89251508509003
	Reference energy             =    -75.42677924222130

*** tstop() called on c1-17.compute.lan at Tue Feb 23 13:37:56 2021
Module time:
	user time   =       9.68 seconds =       0.16 minutes
	system time =       6.50 seconds =       0.11 minutes
	total time  =         16 seconds =       0.27 minutes
Total time:
	user time   =     110.41 seconds =       1.84 minutes
	system time =      60.32 seconds =       1.01 minutes
	total time  =        172 seconds =       2.87 minutes
            **************************
            *                        *
            *        CCENERGY        *
            *                        *
            **************************

    Nuclear Rep. energy (wfn)     =    4.384559954684666
    SCF energy          (wfn)     =  -75.426779242221272
    Reference energy    (file100) =  -75.426779242221301

    Input parameters:
    -----------------
    Wave function   =     CCSD
    Reference wfn   =     UHF
    Brueckner       =     No
    Memory (Mbytes) =     10000.0
    Maxiter         =     50
    R_Convergence   =     1.0e-10
    E_Convergence   =     1.0e-10
    Restart         =     Yes
    DIIS            =     Yes
    AO Basis        =     NONE
    ABCD            =     NEW
    Cache Level     =     2
    Cache Type      =     LRU
    Print Level     =     1
    Num. of threads =     1
    # Amps to Print =     10
    Print MP2 Amps? =     No
    Analyze T2 Amps =     No
    Print Pair Ener =     No
    Local CC        =     No
    SCS-MP2         =     False
    SCSN-MP2        =     False
    SCS-CCSD        =     False

    Using old T1 amplitudes.
    Using old T2 amplitudes.
MP2 correlation energy -0.2497591520509477
                Solving CC Amplitude Equations
                ------------------------------
  Iter             Energy              RMS        T1Diag      D1Diag    New D1Diag    D2Diag
  ----     ---------------------    ---------   ----------  ----------  ----------   --------
     0        -0.239957165567697    0.000e+00    0.011370    0.000000    0.000000    0.000000
     1        -0.260548012128088    7.742e-02    0.012006    0.000000    0.000000    0.000000
     2        -0.261407803050605    1.408e-02    0.011653    0.000000    0.000000    0.000000
     3        -0.261691709101070    3.140e-03    0.011685    0.000000    0.000000    0.000000
     4        -0.261703000627449    8.119e-04    0.011651    0.000000    0.000000    0.000000
     5        -0.261706815815837    2.020e-04    0.011659    0.000000    0.000000    0.000000
     6        -0.261710654730869    7.285e-05    0.011654    0.000000    0.000000    0.000000
     7        -0.261710078322012    2.352e-05    0.011653    0.000000    0.000000    0.000000
     8        -0.261710037373791    7.433e-06    0.011653    0.000000    0.000000    0.000000
     9        -0.261710039902776    2.851e-06    0.011653    0.000000    0.000000    0.000000
    10        -0.261710016702694    1.239e-06    0.011653    0.000000    0.000000    0.000000
    11        -0.261710023518220    5.077e-07    0.011653    0.000000    0.000000    0.000000
    12        -0.261710025802673    1.834e-07    0.011653    0.000000    0.000000    0.000000
    13        -0.261710025803667    6.140e-08    0.011653    0.000000    0.000000    0.000000
    14        -0.261710026737474    2.224e-08    0.011653    0.000000    0.000000    0.000000
    15        -0.261710026990683    8.079e-09    0.011653    0.000000    0.000000    0.000000
    16        -0.261710027105405    3.062e-09    0.011653    0.000000    0.000000    0.000000
    17        -0.261710027158219    1.237e-09    0.011653    0.000000    0.000000    0.000000
    18        -0.261710027165315    5.028e-10    0.011653    0.000000    0.000000    0.000000
    19        -0.261710027169999    2.106e-10    0.011653    0.000000    0.000000    0.000000
    20        -0.261710027170883    8.596e-11    0.011653    0.000000    0.000000    0.000000

    Iterations converged.


    Largest TIA Amplitudes:
              4  92        -0.0117162616
              3  63        -0.0113314099
              3  64        -0.0074765734
              4  93        -0.0073259996
              4  95        -0.0068786891
              3  66        -0.0056688524
              4  96        -0.0043797154
              4  94        -0.0040119928
              2  21         0.0039219515
              2   1        -0.0038976749

    Largest Tia Amplitudes:
              3  63        -0.0085505756
              3  64        -0.0066659244
              1  13        -0.0054430283
              1   4        -0.0053104322
              1  10        -0.0050494646
              3  74         0.0048113193
              2  18         0.0043776781
              2  21         0.0043674355
              3  65        -0.0041384437
              2  10        -0.0039669334

    Largest TIJAB Amplitudes:
      4   3  49  12         0.0099130259
      4   2  95  10         0.0089276648
      3   2  67  10         0.0088655140
      4   3  95  67        -0.0086867923
      4   3  95  66        -0.0081966632
      3   2  66  10         0.0081553946
      4   2  96  10         0.0080585816
      4   3  96  67        -0.0080240755
      3   2  67   4         0.0077761894
      4   2  95   4         0.0077113633

    Largest Tijab Amplitudes:
      3   2  67  10         0.0092242354
      3   2  67   4         0.0080732664
      3   2  66  10         0.0079777799
      3   1  92  49        -0.0074396526
      3   2  68   6        -0.0074347603
      3   2  65   6        -0.0070075662
      3   2  66   4         0.0069007235
      3   2  63  10         0.0068335896
      3   2  63   4         0.0065560040
      3   2  74  10         0.0065252467

    Largest TIjAb Amplitudes:
      2   2  10  10        -0.0233752679
      2   2   4   4        -0.0219082801
      2   2   4  10        -0.0211685998
      2   2  10   4        -0.0203580146
      3   3  67  67        -0.0178293523
      4   1  12  92         0.0155816777
      3   3  66  67        -0.0154006639
      3   1  49  92         0.0150318418
      3   3  67  66        -0.0141930721
      3   3  66  66        -0.0133607201

    SCF energy       (wfn)                    =  -75.426779242221272
    Reference energy (file100)                =  -75.426779242221301

    Opposite-spin MP2 correlation energy      =   -0.194951416249096
    Same-spin MP2 correlation energy          =   -0.054807735801852
    MP2 correlation energy                    =   -0.249759152050948
      * MP2 total energy                      =  -75.676538394272242

    Opposite-spin CCSD correlation energy     =   -0.209790644724212
    Same-spin CCSD correlation energy         =   -0.051919382446672
    CCSD correlation energy                   =   -0.261710027170883
      * CCSD total energy                     =  -75.688489269392178


			**************************
			*                        *
			*         CCHBAR         *
			*                        *
			**************************


			**************************
			*        CCLAMBDA        *
			**************************


	Nuclear Rep. energy (wfn)     =    4.384559954684666
	Reference           (wfn)     =                    2
	SCF energy          (wfn)     =  -75.426779242221272
	Reference energy    (CC_INFO) =  -75.426779242221301
	CCSD energy         (CC_INFO) =   -0.261710027170883
	Total CCSD energy   (CC_INFO) =  -75.688489269392178

	Input parameters:
	-----------------
	Maxiter           =     50
	Convergence       = 1.0e-07
	Restart           =     No
	Cache Level       =     2
	Model III         =     No
	DIIS              =     Yes
	AO Basis          =     No
	ABCD              =     NEW
	Local CC          =     No
	Parameters for left-handed eigenvectors:
	    Irr   Root  Ground-State?    EOM energy        R0
	  1   0     0        Yes       0.0000000000   1.0000000000
	Labels for eigenvector 1:
	LIA 0 -1, Lia 0 -1, LIJAB 0 -1, Lijab 0 -1, LIjAb 0 -1, 2LIjAb - LIjbA 0 -1
	Symmetry of left-hand state: B2
	Symmetry of left-hand eigenvector: A1

	          Solving Lambda Equations
	          ------------------------
	Iter     PseudoEnergy or Norm         RMS  
	----     ---------------------     --------
	   0        -0.261715105624535    5.871e-08
	   1        -0.256923083347452    8.556e-03
	   2        -0.256458257175539    1.907e-03
	   3        -0.256356421465485    9.327e-04
	   4        -0.256354240333087    2.683e-04
	   5        -0.256360002190946    7.938e-05
	   6        -0.256358160402942    3.051e-05
	   7        -0.256357377948298    1.433e-05
	   8        -0.256357503180945    4.624e-06
	   9        -0.256357459644041    1.539e-06
	  10        -0.256357449836097    5.224e-07
	  11        -0.256357434995581    1.850e-07
	  12        -0.256357436030272    6.805e-08

	Largest LIA Amplitudes:
	          4  92        -0.0089009789
	          3  63        -0.0081475811
	          4  93        -0.0054932443
	          3  64        -0.0052827512
	          4  95        -0.0050886459
	          3  66        -0.0040369584
	          2  21         0.0031899441
	          4  96        -0.0031131021
	          1   2         0.0030700503
	          1   9        -0.0030197791

	Largest Lia Amplitudes:
	          1   4        -0.0052193191
	          1  13        -0.0051119429
	          3  63        -0.0049758955
	          2  10        -0.0047279687
	          1  10        -0.0045828827
	          3  74         0.0042214627
	          3  64        -0.0041506036
	          2  18         0.0040322898
	          2  21         0.0037461354
	          1   5        -0.0030520807

	Largest LIJAB Amplitudes:
	  4   3  49  12         0.0096828675
	  4   2  95  10         0.0087757346
	  3   2  67  10         0.0086747657
	  4   3  95  67        -0.0085701110
	  4   3  95  66        -0.0080780705
	  3   2  66  10         0.0079747351
	  4   2  96  10         0.0079213656
	  4   3  96  67        -0.0079043325
	  3   2  67   4         0.0075723067
	  4   2  95   4         0.0075472390

	Largest Lijab Amplitudes:
	  3   2  67  10         0.0089521599
	  3   2  67   4         0.0077774260
	  3   2  66  10         0.0077251993
	  3   1  92  49        -0.0072531523
	  3   2  68   6        -0.0071642257
	  3   2  65   6        -0.0067224579
	  3   2  66   4         0.0066286526
	  3   2  63  10         0.0065656368
	  3   2  74  10         0.0063972112
	  3   2  68  11         0.0063011060

	Largest LIjAb Amplitudes:
	  2   2  10  10        -0.0228309517
	  2   2   4   4        -0.0212167120
	  2   2   4  10        -0.0206005980
	  2   2  10   4        -0.0198181448
	  3   3  67  67        -0.0174544651
	  4   1  12  92         0.0152332438
	  3   3  66  67        -0.0150959280
	  3   1  49  92         0.0146659868
	  3   3  67  66        -0.0139096672
	  3   3  66  66        -0.0130794459

	Iterations converged.

	Overlap <L|e^T> =        0.94559437826

			**************************
			*                        *
			*        CCDENSITY       *
			*                        *
			**************************


	Input parameters:
	-----------------
	Wave function    =   CCSD
	Reference wfn    =   UHF
	Dertype          = 1
	Tolerance        = 1.0e-14
	Cache Level      = 2
	AO Basis         = No
	OPDM Only        = No
	Relax OPDM       = Yes
	Compute Xi       = No
	Use Zeta         = No
	Xi connected     = Yes
	Compute NO       = No

	Nuclear Rep. energy (wfn)     =    4.384559954684666
	SCF energy          (wfn)     =  -75.426779242221272
	Reference energy    (file100) =  -75.426779242221301
	CCSD energy         (CC_INFO) =   -0.261710027170883
	Total CCSD energy   (CC_INFO) =  -75.688489269392178
	Number of States = 1

	Ground?  State     EOM Energy       R0
	  Yes     0 A1    0.0000000000   1.00000000
  Cartesian Displacement SALCs
  By SALC:
  Number of SALCs: 2, nirreps: A1
  Project out translations: False
  Project out rotations: False
	irrep = 0, ncomponent = 1
		0: atom 0, direction z, coef 1.000000
	irrep = 0, ncomponent = 1
		0: atom 1, direction z, coef 1.000000

  By Atomic Center:
  Number of atomic centers: 2
   Atomic Center 0:
	x component, size = 0
	y component, size = 0
	z component, size = 1
		0: salc 0, irrep 0, coef 1.000000
   Atomic Center 1:
	x component, size = 0
	y component, size = 0
	z component, size = 1
		0: salc 1, irrep 0, coef 1.000000

    Molecular point group: c2v
    Full point group: C_inf_v

    Geometry (in Bohr), charge = 0, multiplicity = 2:

       Center              X                  Y                   Z       
    ------------   -----------------  -----------------  -----------------
         O            0.000000000000     0.000000000000    -0.108150918010
         H            0.000000000000     0.000000000000     1.716433551739

	Presorting MO-basis TPDMs.
	Sorting File: MO TPDM (AA|AA) nbuckets = 1
	Sorting File: MO TPDM (AA|aa) nbuckets = 1
	Sorting File: MO TPDM (aa|aa) nbuckets = 1
	Starting first half-transformation.
	Sorting half-transformed TPDMs.
	First half integral transformation complete.


  -Nuclear Repulsion Energy 1st Derivatives:
     Atom            X                  Y                   Z
    ------   -----------------  -----------------  -----------------
       1        0.000000000000     0.000000000000     2.403045749528
       2        0.000000000000     0.000000000000    -2.403045749528


  -Core Hamiltonian Gradient:
     Atom            X                  Y                   Z
    ------   -----------------  -----------------  -----------------
       1        0.000000000000     0.000000000000    -4.589750213344
       2        0.000000000000     0.000000000000     4.589750213344


  -Lagrangian contribution to gradient:
     Atom            X                  Y                   Z
    ------   -----------------  -----------------  -----------------
       1        0.000000000000     0.000000000000     0.199331768176
       2        0.000000000000     0.000000000000    -0.199331768176


  -Two-electron contribution to gradient:
     Atom            X                  Y                   Z
    ------   -----------------  -----------------  -----------------
       1        0.000000000000     0.000000000000     1.988386471089
       2        0.000000000000     0.000000000000    -1.988386471089


  -Total gradient:
     Atom            X                  Y                   Z
    ------   -----------------  -----------------  -----------------
       1        0.000000000000     0.000000000000     0.001013775449
       2        0.000000000000     0.000000000000    -0.001013775449


			-----------------------------------------
			 OPTKING 2.0: for geometry optimizations 
			  - R.A. King,  Bethel University        
			-----------------------------------------

	Previous internal coordinate definitions found.
	---Fragment 1 Geometry and Gradient---
	 O           0.0000000000        0.0000000000       -0.1081509180
	 H           0.0000000000        0.0000000000        1.7164335517
	             0.0000000000        0.0000000000        0.0010137754
	             0.0000000000        0.0000000000       -0.0010137754

	---Fragment 1 Intrafragment Coordinates---
	 - Coordinate -           - BOHR/RAD -       - ANG/DEG -
	 R(1,2)           =         1.824584	       0.965529

	Current energy   :       -75.6884892694

	Energy change for the previous step:
		Projected    :        -0.0000911777
		Actual       :        -0.0003338238
	Energy ratio indicates good step: Trust radius increased to 1.000e+00.


	Performing BFGS update.
	Previous computed or guess Hessian on step 1.
	Steps to be used in Hessian update: 1
	Taking RFO optimization step.
	Going to follow RFO solution 1.
	Using RFO vector 1.
	Norm of target step-size    0.00184
	Projected energy change by RFO approximation:        -0.0000001749

	Back-transformation to cartesian coordinates...
	Successfully converged to displaced geometry.

	--- Internal Coordinate Step in ANG or DEG, aJ/ANG or AJ/DEG ---
	 ---------------------------------------------------------------------------
	   Coordinate                Previous        Force       Change         New 
	   ----------                --------       ------       ------       ------
	    1 R(1,2)          =      0.965529     0.008352     0.000972     0.966501
	 ---------------------------------------------------------------------------
	Successfully symmetrized geometry.

  ==> Convergence Check <==

  Measures of convergence in internal coordinates in au.
  Criteria marked as inactive (o), active & met (*), and active & unmet ( ).
  ---------------------------------------------------------------------------------------------
   Step     Total Energy     Delta E     MAX Force     RMS Force      MAX Disp      RMS Disp   
  ---------------------------------------------------------------------------------------------
    Convergence Criteria             o    2.00e-06 *    1.00e-06 *    6.00e-06 *    4.00e-06 *
  ---------------------------------------------------------------------------------------------
      2     -75.68848927   -3.34e-04 o    1.01e-03      1.01e-03      1.84e-03      1.84e-03    ~
  ---------------------------------------------------------------------------------------------

	Writing optimization data to binary file.
	Structure for next step:
	Cartesian Geometry (in Angstrom)
	    O     0.0000000000   0.0000000000  -0.0577170940
	    H     0.0000000000   0.0000000000   0.9087836087
			--------------------------
			 OPTKING Finished Execution 
			--------------------------

    Structure for next step:
    Molecular point group: c2v
    Full point group: C_inf_v

    Geometry (in Angstrom), charge = 0, multiplicity = 2:

    O       
    H             1          R1

    R1        =    0.9665007065

gradient() will perform analytic gradient computation.

*** tstart() called on c1-17.compute.lan
*** at Tue Feb 23 13:39:53 2021

   => Loading Basis Set <=

    Name: AUG-CC-PVQZ
    Role: ORBITAL
    Keyword: BASIS
    atoms 1 entry O          line   423 file /apps/gb/PSI4/1.4.0/share/psi4/basis/aug-cc-pvqz.gbs 
    atoms 2 entry H          line    40 file /apps/gb/PSI4/1.4.0/share/psi4/basis/aug-cc-pvqz.gbs 


         ---------------------------------------------------------
                                   SCF
               by Justin Turney, Rob Parrish, Andy Simmonett
                          and Daniel G. A. Smith
                              UHF Reference
                        1 Threads,   9536 MiB Core
         ---------------------------------------------------------

  ==> Geometry <==

    Molecular point group: c2v
    Full point group: C_inf_v

    Geometry (in Angstrom), charge = 0, multiplicity = 2:

       Center              X                  Y                   Z               Mass       
    ------------   -----------------  -----------------  -----------------  -----------------
         O            0.000000000000     0.000000000000    -0.057288626750    15.994914619570
         H            0.000000000000     0.000000000000     0.909212079714     1.007825032230

  Running in c2v symmetry.

  Rotational constants: A = ************  B =     19.03461  C =     19.03461 [cm^-1]
  Rotational constants: A = ************  B = 570643.25113  C = 570643.25113 [MHz]
  Nuclear repulsion =    4.380149602629906

  Charge       = 0
  Multiplicity = 2
  Electrons    = 9
  Nalpha       = 5
  Nbeta        = 4

  ==> Algorithm <==

  SCF Algorithm Type is PK.
  DIIS enabled.
  MOM disabled.
  Fractional occupation disabled.
  Guess Type is READ.
  Energy threshold   = 1.00e-10
  Density threshold  = 1.00e-10
  Integral threshold = 0.00e+00

  ==> Primary Basis <==

  Basis Set: AUG-CC-PVQZ
    Blend: AUG-CC-PVQZ
    Number of shells: 34
    Number of basis function: 126
    Number of Cartesian functions: 160
    Spherical Harmonics?: true
    Max angular momentum: 4

[...]
	Size of irrep 1 of <Ia|Bc> integrals:      0.344 (MW) /      2.752 (MB)
	Size of irrep 2 of <Ia|Bc> integrals:      0.550 (MW) /      4.404 (MB)
	Size of irrep 3 of <Ia|Bc> integrals:      0.566 (MW) /      4.530 (MB)
	Total:                                     2.296 (MW) /     18.368 (MB)

	Size of irrep 0 of <iA|bC> integrals:      0.710 (MW) /      5.679 (MB)
	Size of irrep 1 of <iA|bC> integrals:      0.248 (MW) /      1.980 (MB)
	Size of irrep 2 of <iA|bC> integrals:      0.492 (MW) /      3.934 (MB)
	Size of irrep 3 of <iA|bC> integrals:      0.381 (MW) /      3.050 (MB)
	Total:                                     1.830 (MW) /     14.644 (MB)

	Size of irrep 0 of tIjAb amplitudes:       0.042 (MW) /      0.334 (MB)
	Size of irrep 1 of tIjAb amplitudes:       0.003 (MW) /      0.026 (MB)
	Size of irrep 2 of tIjAb amplitudes:       0.022 (MW) /      0.176 (MB)
	Size of irrep 3 of tIjAb amplitudes:       0.011 (MW) /      0.089 (MB)
	Total:                                     0.078 (MW) /      0.625 (MB)

	Nuclear Rep. energy          =      4.37985607104739
	SCF energy                   =    -75.42674701302124
	One-electron energy          =   -112.69561628476062
	Two-electron (AA) energy     =      7.75015676275257
	Two-electron (BB) energy     =      4.63571130706239
	Two-electron (AB) energy     =     20.50314513087703
	Two-electron energy          =     32.88901320069199
	Reference energy             =    -75.42674701302124

*** tstop() called on c1-17.compute.lan at Tue Feb 23 13:44:45 2021
Module time:
	user time   =       9.65 seconds =       0.16 minutes
	system time =       6.40 seconds =       0.11 minutes
	total time  =         17 seconds =       0.28 minutes
Total time:
	user time   =     363.86 seconds =       6.06 minutes
	system time =     203.32 seconds =       3.39 minutes
	total time  =        581 seconds =       9.68 minutes
            **************************
            *                        *
            *        CCENERGY        *
            *                        *
            **************************

    Nuclear Rep. energy (wfn)     =    4.379856071047386
    SCF energy          (wfn)     =  -75.426747013021242
    Reference energy    (file100) =  -75.426747013021242

    Input parameters:
    -----------------
    Wave function   =     CCSD
    Reference wfn   =     UHF
    Brueckner       =     No
    Memory (Mbytes) =     10000.0
    Maxiter         =     50
    R_Convergence   =     1.0e-10
    E_Convergence   =     1.0e-10
    Restart         =     Yes
    DIIS            =     Yes
    AO Basis        =     NONE
    ABCD            =     NEW
    Cache Level     =     2
    Cache Type      =     LRU
    Print Level     =     1
    Num. of threads =     1
    # Amps to Print =     10
    Print MP2 Amps? =     No
    Analyze T2 Amps =     No
    Print Pair Ener =     No
    Local CC        =     No
    SCS-MP2         =     False
    SCSN-MP2        =     False
    SCS-CCSD        =     False

    Using old T1 amplitudes.
    Using old T2 amplitudes.
MP2 correlation energy -0.2497906316457149
                Solving CC Amplitude Equations
                ------------------------------
  Iter             Energy              RMS        T1Diag      D1Diag    New D1Diag    D2Diag
  ----     ---------------------    ---------   ----------  ----------  ----------   --------
     0        -0.261743121843124    0.000e+00    0.011670    0.000000    0.000000    0.000000
     1        -0.261743229879632    5.408e-06    0.011670    0.000000    0.000000    0.000000
     2        -0.261743238745050    9.629e-07    0.011670    0.000000    0.000000    0.000000
     3        -0.261743246148611    2.228e-07    0.011670    0.000000    0.000000    0.000000
     4        -0.261743247678770    7.657e-08    0.011670    0.000000    0.000000    0.000000
     5        -0.261743248562474    2.809e-08    0.011670    0.000000    0.000000    0.000000
     6        -0.261743248622099    1.275e-08    0.011670    0.000000    0.000000    0.000000
     7        -0.261743248674305    4.835e-09    0.011670    0.000000    0.000000    0.000000
     8        -0.261743248688447    1.699e-09    0.011670    0.000000    0.000000    0.000000
     9        -0.261743248701221    5.787e-10    0.011670    0.000000    0.000000    0.000000
    10        -0.261743248707421    1.948e-10    0.011670    0.000000    0.000000    0.000000
    11        -0.261743248708514    6.099e-11    0.011670    0.000000    0.000000    0.000000

    Iterations converged.


    Largest TIA Amplitudes:
              4  92        -0.0117321274
              3  63        -0.0113503139
              3  64        -0.0074827141
              4  93        -0.0073279977
              4  95        -0.0068815611
              3  66        -0.0056721097
              4  96        -0.0043888350
              4  94        -0.0040219958
              2  21         0.0039290711
              2   1        -0.0039077083

    Largest Tia Amplitudes:
              3  63        -0.0085673747
              3  64        -0.0066736814
              1  13        -0.0054457341
              1   4        -0.0053347094
              1  10        -0.0050472568
              3  74         0.0048171715
              2  18         0.0043811445
              2  21         0.0043788353
              3  65        -0.0041467185
              2  10        -0.0039972824

    Largest TIJAB Amplitudes:
      4   3  49  12         0.0097579182
      4   2  95  10         0.0089388046
      3   2  67  10         0.0088856683
      4   3  95  67        -0.0086903416
      4   3  95  66        -0.0081955084
      3   2  66  10         0.0081642425
      4   2  96  10         0.0080763698
      4   3  96  67        -0.0080311431
      4   3  49  13        -0.0078709301
      3   2  67   4         0.0077942437

    Largest Tijab Amplitudes:
      3   2  67  10         0.0092484199
      3   2  67   4         0.0080931742
      3   2  66  10         0.0079878965
      3   1  92  49        -0.0074462761
      3   2  68   6        -0.0074312729
      3   2  65   6        -0.0070093798
      3   2  66   4         0.0069060613
      3   2  63  10         0.0068508903
      3   2  63   4         0.0065715044
      3   2  74  10         0.0065295809

    Largest TIjAb Amplitudes:
      2   2  10  10        -0.0233890926
      2   2   4   4        -0.0220117052
      2   2   4  10        -0.0212074111
      2   2  10   4        -0.0203951803
      3   3  67  67        -0.0178480693
      4   1  12  92         0.0155186307
      3   3  66  67        -0.0154057469
      3   1  49  92         0.0150392239
      3   3  67  66        -0.0141957787
      3   3  66  66        -0.0133568410

    SCF energy       (wfn)                    =  -75.426747013021242
    Reference energy (file100)                =  -75.426747013021242

    Opposite-spin MP2 correlation energy      =   -0.194976374011893
    Same-spin MP2 correlation energy          =   -0.054814257633822
    MP2 correlation energy                    =   -0.249790631645715
      * MP2 total energy                      =  -75.676537644666951

    Opposite-spin CCSD correlation energy     =   -0.209821983186918
    Same-spin CCSD correlation energy         =   -0.051921265521595
    CCSD correlation energy                   =   -0.261743248708514
      * CCSD total energy                     =  -75.688490261729754


			**************************
			*                        *
			*         CCHBAR         *
			*                        *
			**************************


			**************************
			*        CCLAMBDA        *
			**************************


	Nuclear Rep. energy (wfn)     =    4.379856071047386
	Reference           (wfn)     =                    2
	SCF energy          (wfn)     =  -75.426747013021242
	Reference energy    (CC_INFO) =  -75.426747013021242
	CCSD energy         (CC_INFO) =   -0.261743248708514
	Total CCSD energy   (CC_INFO) =  -75.688490261729754

	Input parameters:
	-----------------
	Maxiter           =     50
	Convergence       = 1.0e-07
	Restart           =     No
	Cache Level       =     2
	Model III         =     No
	DIIS              =     Yes
	AO Basis          =     No
	ABCD              =     NEW
	Local CC          =     No
	Parameters for left-handed eigenvectors:
	    Irr   Root  Ground-State?    EOM energy        R0
	  1   0     0        Yes       0.0000000000   1.0000000000
	Labels for eigenvector 1:
	LIA 0 -1, Lia 0 -1, LIJAB 0 -1, Lijab 0 -1, LIjAb 0 -1, 2LIjAb - LIjbA 0 -1
	Symmetry of left-hand state: B2
	Symmetry of left-hand eigenvector: A1

	          Solving Lambda Equations
	          ------------------------
	Iter     PseudoEnergy or Norm         RMS  
	----     ---------------------     --------
	   0        -0.261748268579749    6.870e-08
	   1        -0.256951322865144    8.566e-03
	   2        -0.256485876004429    1.910e-03
	   3        -0.256383829105466    9.343e-04
	   4        -0.256381605743585    2.688e-04
	   5        -0.256387384488271    7.954e-05
	   6        -0.256385539864412    3.058e-05
	   7        -0.256384755957698    1.437e-05
	   8        -0.256384881298919    4.640e-06
	   9        -0.256384837398524    1.546e-06
	  10        -0.256384827518393    5.254e-07
	  11        -0.256384812573887    1.863e-07
	  12        -0.256384813618149    6.870e-08

	Largest LIA Amplitudes:
	          4  92        -0.0089126171
	          3  63        -0.0081614139
	          4  93        -0.0054937950
	          3  64        -0.0052866754
	          4  95        -0.0050912529
	          3  66        -0.0040404170
	          2  21         0.0031951386
	          4  96        -0.0031203374
	          1   2         0.0030729690
	          1   9        -0.0030149277

	Largest Lia Amplitudes:
	          1   4        -0.0052397005
	          1  13        -0.0051143039
	          3  63        -0.0049861009
	          2  10        -0.0047587971
	          1  10        -0.0045751605
	          3  74         0.0042263327
	          3  64        -0.0041550865
	          2  18         0.0040350023
	          2  21         0.0037560374
	          1   5        -0.0030532192

	Largest LIJAB Amplitudes:
	  4   3  49  12         0.0095314814
	  4   2  95  10         0.0087865044
	  3   2  67  10         0.0086942086
	  4   3  95  67        -0.0085738502
	  4   3  95  66        -0.0080771225
	  3   2  66  10         0.0079832396
	  4   2  96  10         0.0079386025
	  4   3  96  67        -0.0079115373
	  4   3  49  13        -0.0076791568
	  3   2  67   4         0.0075897078

	Largest Lijab Amplitudes:
	  3   2  67  10         0.0089753528
	  3   2  67   4         0.0077962219
	  3   2  66  10         0.0077348270
	  3   1  92  49        -0.0072595480
	  3   2  68   6        -0.0071604160
	  3   2  65   6        -0.0067238644
	  3   2  66   4         0.0066334040
	  3   2  63  10         0.0065819848
	  3   2  74  10         0.0064014365
	  3   2  68  11         0.0062876363

	Largest LIjAb Amplitudes:
	  2   2  10  10        -0.0228443338
	  2   2   4   4        -0.0213161547
	  2   2   4  10        -0.0206380275
	  2   2  10   4        -0.0198538957
	  3   3  67  67        -0.0174730020
	  4   1  12  92         0.0151711699
	  3   3  66  67        -0.0151011302
	  3   1  49  92         0.0146730430
	  3   3  67  66        -0.0139125231
	  3   3  66  66        -0.0130758258

	Iterations converged.

	Overlap <L|e^T> =        0.94554973342

			**************************
			*                        *
			*        CCDENSITY       *
			*                        *
			**************************


	Input parameters:
	-----------------
	Wave function    =   CCSD
	Reference wfn    =   UHF
	Dertype          = 1
	Tolerance        = 1.0e-14
	Cache Level      = 2
	AO Basis         = No
	OPDM Only        = No
	Relax OPDM       = Yes
	Compute Xi       = No
	Use Zeta         = No
	Xi connected     = Yes
	Compute NO       = No

	Nuclear Rep. energy (wfn)     =    4.379856071047386
	SCF energy          (wfn)     =  -75.426747013021242
	Reference energy    (file100) =  -75.426747013021242
	CCSD energy         (CC_INFO) =   -0.261743248708514
	Total CCSD energy   (CC_INFO) =  -75.688490261729754
	Number of States = 1

	Ground?  State     EOM Energy       R0
	  Yes     0 A1    0.0000000000   1.00000000
  Cartesian Displacement SALCs
  By SALC:
  Number of SALCs: 2, nirreps: A1
  Project out translations: False
  Project out rotations: False
	irrep = 0, ncomponent = 1
		0: atom 0, direction z, coef 1.000000
	irrep = 0, ncomponent = 1
		0: atom 1, direction z, coef 1.000000

  By Atomic Center:
  Number of atomic centers: 2
   Atomic Center 0:
	x component, size = 0
	y component, size = 0
	z component, size = 1
		0: salc 0, irrep 0, coef 1.000000
   Atomic Center 1:
	x component, size = 0
	y component, size = 0
	z component, size = 1
		0: salc 1, irrep 0, coef 1.000000

    Molecular point group: c2v
    Full point group: C_inf_v

    Geometry (in Bohr), charge = 0, multiplicity = 2:

       Center              X                  Y                   Z       
    ------------   -----------------  -----------------  -----------------
         O            0.000000000000     0.000000000000    -0.108267070077
         H            0.000000000000     0.000000000000     1.718276969323

	Presorting MO-basis TPDMs.
	Sorting File: MO TPDM (AA|AA) nbuckets = 1
	Sorting File: MO TPDM (AA|aa) nbuckets = 1
	Sorting File: MO TPDM (aa|aa) nbuckets = 1
	Starting first half-transformation.
	Sorting half-transformed TPDMs.
	First half integral transformation complete.


  -Nuclear Repulsion Energy 1st Derivatives:
     Atom            X                  Y                   Z
    ------   -----------------  -----------------  -----------------
       1        0.000000000000     0.000000000000     2.397892400386
       2        0.000000000000     0.000000000000    -2.397892400386


  -Core Hamiltonian Gradient:
     Atom            X                  Y                   Z
    ------   -----------------  -----------------  -----------------
       1        0.000000000000     0.000000000000    -4.584366812811
       2        0.000000000000     0.000000000000     4.584366812811


  -Lagrangian contribution to gradient:
     Atom            X                  Y                   Z
    ------   -----------------  -----------------  -----------------
       1        0.000000000000     0.000000000000     0.199270262128
       2        0.000000000000     0.000000000000    -0.199270262128


  -Two-electron contribution to gradient:
     Atom            X                  Y                   Z
    ------   -----------------  -----------------  -----------------
       1        0.000000000000     0.000000000000     1.987204399880
       2        0.000000000000     0.000000000000    -1.987204399880


  -Total gradient:
     Atom            X                  Y                   Z
    ------   -----------------  -----------------  -----------------
       1        0.000000000000     0.000000000000     0.000000249584
       2        0.000000000000     0.000000000000    -0.000000249584


			-----------------------------------------
			 OPTKING 2.0: for geometry optimizations 
			  - R.A. King,  Bethel University        
			-----------------------------------------

	Previous internal coordinate definitions found.
	---Fragment 1 Geometry and Gradient---
	 O           0.0000000000        0.0000000000       -0.1082670701
	 H           0.0000000000        0.0000000000        1.7182769693
	             0.0000000000        0.0000000000        0.0000002496
	             0.0000000000        0.0000000000       -0.0000002496

	---Fragment 1 Intrafragment Coordinates---
	 - Coordinate -           - BOHR/RAD -       - ANG/DEG -
	 R(1,2)           =         1.826544	       0.966565

	Current energy   :       -75.6884902617

	Energy change for the previous step:
		Projected    :        -0.0000000000
		Actual       :        -0.0000000000

	Performing BFGS update.
	Previous computed or guess Hessian on step 1.
	Denominators (dg)(dq) or (dq)(dq) are very small.
	 Skipping Hessian update for step 4.
	Denominators (dg)(dq) or (dq)(dq) are very small.
	 Skipping Hessian update for step 3.
	Steps to be used in Hessian update: 2 1
	Taking RFO optimization step.
	Going to follow RFO solution 1.
	Using RFO vector 1.
	Norm of target step-size    0.00000
	Projected energy change by RFO approximation:        -0.0000000000

	Back-transformation to cartesian coordinates...
	Successfully converged to displaced geometry.

	--- Internal Coordinate Step in ANG or DEG, aJ/ANG or AJ/DEG ---
	 ---------------------------------------------------------------------------
	   Coordinate                Previous        Force       Change         New 
	   ----------                --------       ------       ------       ------
	    1 R(1,2)          =      0.966565     0.000002     0.000000     0.966566
	 ---------------------------------------------------------------------------
	Successfully symmetrized geometry.

  ==> Convergence Check <==

  Measures of convergence in internal coordinates in au.
  Criteria marked as inactive (o), active & met (*), and active & unmet ( ).
  ---------------------------------------------------------------------------------------------
   Step     Total Energy     Delta E     MAX Force     RMS Force      MAX Disp      RMS Disp   
  ---------------------------------------------------------------------------------------------
    Convergence Criteria             o    2.00e-06 *    1.00e-06 *    6.00e-06 *    4.00e-06 *
  ---------------------------------------------------------------------------------------------
      5     -75.68849026   -3.68e-12 o    2.50e-07 *    2.50e-07 *    4.54e-07 *    4.54e-07 *  ~
  ---------------------------------------------------------------------------------------------


  **** Optimization is complete! (in 5 steps) ****

  ==> Optimization Summary <==

  Measures of convergence in internal coordinates in au.
  --------------------------------------------------------------------------------------------------------------- ~
   Step         Total Energy             Delta E       MAX Force       RMS Force        MAX Disp        RMS Disp  ~
  --------------------------------------------------------------------------------------------------------------- ~
      1     -75.688155445603    -75.688155445603      0.01939720      0.01939720      0.03331458      0.03331458  ~
      2     -75.688489269392     -0.000333823789      0.00101378      0.00101378      0.00183717      0.00183717  ~
      3     -75.688490257844     -0.000000988452      0.00006335      0.00006335      0.00011517      0.00011517  ~
      4     -75.688490261726     -0.000000003882      0.00000398      0.00000398      0.00000723      0.00000723  ~
      5     -75.688490261730     -0.000000000004      0.00000025      0.00000025      0.00000045      0.00000045  ~
  --------------------------------------------------------------------------------------------------------------- ~

	Writing optimization data to binary file.
	Final energy is    -75.6884902617298
	Final (previous) structure:
	Cartesian Geometry (in Angstrom)
	    O     0.0000000000   0.0000000000  -0.0572924659
	    H     0.0000000000   0.0000000000   0.9092730102
	Saving final (previous) structure.
			--------------------------
			 OPTKING Finished Execution 
			--------------------------

    Final optimized geometry and variables:
    Molecular point group: c2v
    Full point group: C_inf_v

    Geometry (in Angstrom), charge = 0, multiplicity = 2:

    O       
    H             1          R1

    R1        =    0.9665654799

	Removing binary optimization data file.
	Cleaning optimization helper files.

    Psi4 stopped on: Tuesday, 23 February 2021 01:46PM
    Psi4 wall time for execution: 0:11:25.43

*** Psi4 exiting successfully. Buy a developer a beer!
