 --invoking executable--
/apps/eb/cfour/2.1-iompi-2018a-serial/bin/xjoda


   *************************************************************************
         <<<     CCCCCC     CCCCCC   |||     CCCCCC     CCCCCC   >>>
       <<<      CCC        CCC       |||    CCC        CCC         >>>
      <<<      CCC        CCC        |||   CCC        CCC            >>>
    <<<        CCC        CCC        |||   CCC        CCC              >>>
      <<<      CCC        CCC        |||   CCC        CCC            >>>
       <<<      CCC        CCC       |||    CCC        CCC         >>>
         <<<     CCCCCC     CCCCCC   |||     CCCCCC     CCCCCC   >>>
   *************************************************************************

     ****************************************************************
     * CFOUR Coupled-Cluster techniques for Computational Chemistry *
     ****************************************************************
 

   Department of Chemistry                Institut fuer Physikalische Chemie
   University of Florida                  Universitaet Mainz
   Gainesville, FL 32611, USA             D-55099 Mainz, Germany

   Department of Chemistry                Fakultaet fuer Chemie und Biowiss.
   Johns Hopkins University               Karlsruher Institut fuer Technologie
   Baltimore, MD 21218, USA               D-76131 Karlsruhe, Germany

   Department of Chemistry                Department of Physical Chemistry
   Southern Methodist University          Eotvos Lorand University
   Dallas, TX 75275, USA                  H-1053 Budapest, Hungary

 
                       Version 2.1
 
                     c2-12.compute.lan                                 
                     Thu Feb 18 12:39:42 EST 2021                      
                     integer*8 version is running
 
********************************************************************************
*                          Input from ZMAT file                                *
********************************************************************************
CFOUR Optimization JOB                                                          
O   -1.011026672700    0.113858930400    0.000000000000                         
H   -1.003886066100   -0.857833726200    0.000000000000                         
O    1.011026672700   -0.113858930400    0.000000000000                         
H    1.003886066100    0.857833726200    0.000000000000                         
                                                                                
*CFOUR(CALC=CCSDT                                                               
       BASIS=AUG-PVQZ                                                           
       SCF_CONV=10                                                              
       CC_CONV=10                                                               
       SCF_MAXCYC=500                                                           
       CC_MAXCYC=150                                                            
       CC_PROGRAM=MRCC                                                          
       DERIV_LEVEL=1                                                            
       FROZEN_CORE=ON                                                           
       LINEQ_CONV=12                                                            
       OPT_MAXCYC=400                                                           
       REFERENCE=UHF                                                            
       MULTIPLICITY=3                                                           
       COORDINATES=CARTESIAN                                                    
       MEMORY=40                                                                
       MEM_UNIT=GB                                                              
       UNITS=ANGSTROM)                                                          
********************************************************************************
    -------------------------------------------------------------------
                    CFOUR Control Parameters 
    -------------------------------------------------------------------
        External           Internal           Value            Units
          Name               Name
    -------------------------------------------------------------------
       ABCDTYPE             IABCDT         STANDARD    [  0]    ***   
       ANHARMONIC           IANHAR         OFF         [  0]    ***   
       ANH_ALGORIT          IANALG         STANDARD    [  0]    ***   
       ANH_DERIVAT          IANDER         SECOND      [  1]    ***   
       ANH_MODE             ANHMOD         VIBRATION   [  0]    ***   
       ANH_STEPSIZ          ICUBST             50000          x 10-6  
       ANH_SYMMETR          IANHSM         ABELIAN     [  0]    ***   
       AO_LADDERS           IAOLAD         SINGLEPASS  [  1]    ***   
       AV_SCF               IAVSCF         OFF         [  0]    ***   
       BASIS                IBASIS         AUG-PVQZ    [ 35]    ***   
       BOTHVECTORS          BOTHVC         OFF         [  0]    ***   
       BOX_POTENT           IPIAB          OFF         [  0]    ***   
       BREIT                IBREIT         OFF         [  0]    ***   
       BRUCK_CONV           IBRTOL          10D-  4             ***   
       BRUECKNER            IBRKNR         OFF         [  0]    ***   
       BUFFERSIZE           IBUFFS              4096            ***   
       CACHE_RECS           ICHREC             10               ***   
       CALCLEVEL            ICLLVL         CCSDT       [ 18]    ***   
       CCORBOPT             ICCORB         OFF         [  0]  x 0.01  
       CC_CONV              ICCCNV          10D- 10             ***   
       CC_EXPORDER          ICCEOR              5               ***   
       CC_EXTRAPOL          ICCEXT         DIIS        [  1]    ***   
       CC_GUESS             ICCGES         MP2         [  0]    ***   
       CC_MAXCYC            ICCCYC            150              cycles 
       CC_PROGRAM           ICCPRO         MRCC        [  2]    ***   
       CHARGE               ICHRGE              0               ***   
       CHOLESKY             ICHOLE         OFF         [  0]    ***   
       CIS_CONV             ICISTL              5               ***   
       COMM_SIZE            IPSIZE            ***               ***   
       CONSTANT             ICONST         OLD         [  1]    ***   
       CONTINUUM            ICONTU         NONE        [  0]    ***   
       CONTRACTION          ICNTYP         GENERAL     [  1]    ***   
       COORDINATES          ICOORD         CARTESIAN   [  1]    ***   
       CPHF_CONVER          ICPHFT          10D- 16             ***   
       CPHF_MAXCYC          ICPHFC             64              cycles 
       CUBIC                ICUBIC         OFF         [  0]    ***   
       CURVILINEAR          ICURVY         OFF         [  0]    ***   
       DBOC                 IDBOC          OFF         [  0]    ***   
       DCT                  IDCT           OFF         [  0]    ***   
       DERIV_LEV            IDRLVL         FIRST       [  1]    ***   
       DEVMEM_SIZE          IDVMEM         *********           MByte  
       DIAG_MRCC            IEOMST          10D-  0             ***   
       DIFF_TYPE            IDIFTY         RELAXED     [  0]    ***   
       DIRECT               IDIRCT         OFF         [  0]    ***   
       DROPMO               IDRPMO      NONE         
       ECP                  IECP           OFF         [  0]    ***   
       EIGENVECTOR          IVEC                1               ***   
       EL_ANHARM            IELANH         OFF         [  0]    ***   
       EOMFOLLOW            IEOMSR         ENERGY      [  0]    ***   
       EOMIP                IEOMIP         OFF         [  0]    ***   
       EOMLEVEL             HBARFM         SAME        [  0]    ***   
       EOM_MRCC             IMRCCE         NEW         [  1]    ***   
       EOM_NONIT            EOMNON         OFF         [  0]    ***   
       EOM_NSING            IEOMSI          10D-  0             ***   
       EOM_NSTATES          IMRCCD         DAVIDSON    [  0]    ***   
       EOM_NTRIP            IEOMTR          10D-  0             ***   
       EOM_ORDER            IEXORD         ENERGY      [  0]    ***   
       EOM_PROPSTA          IEOMST              0               ***   
       ESTATE_CONV          IEXTOL          10D-  5             ***   
       ESTATE_DIAG          IEXDIG         ITERATIVE   [  0]    ***   
       ESTATE_LOCK          IESLOC         ON          [  1]    ***   
       ESTATE_MAXC          IEXMXC             40               ***   
       ESTATE_PROP          IEXPRP         OFF         [  0]    ***   
       EVAL_HESS            IRECAL              0            # of cyc.
       EXCITATION           IEXCIT              0               ***   
       EXCITE               IEXCIT         NONE        [  0]    ***   
       EXTERN_POT           IEXPOT         OFF         [  0]    ***   
       FCGRADNEW            IFCGNW         OFF         [  0]    ***   
       FC_FIELD             IFINFC              0             x 10-6  
       FD_CALTYPE           IFDCAL         GRADONLY    [  0]    ***   
       FD_PROJECT           IFDPRJ         OFF         [  1]    ***   
       FD_STEPSIZE          IDISFD              0            10-4 bohr
       FD_USEGROUP          IFDGRP         FULL        [  0]    ***   
       FILE_RECSIZ          IFLREC              4096           words  
       FINITE_PERT          IFIPER              0             x 10-6  
       FIXGEOM              IFIXGM         OFF         [  0]    ***   
       FOCK                 IFOCK          AO          [  1]    ***   
       FREQ_ALGORI          IVIALG         STANDARD    [  0]    ***   
       FROZEN_CORE          IFROCO         ON          [  1]    ***   
       GAMMA_ABCD           IGABCD         STORE       [  0]    ***   
       GAMMA_ABCI           IGABCI         STORE       [  0]    ***   
       GENBAS_1             IGNBS1              0               ***   
       GENBAS_2             IGNBS2              0               ***   
       GENBAS_3             IGNBS3              0               ***   
       GENBAS_4             IGNBS4              0               ***   
       GEO_CONV             ICONTL              5              H/bohr 
       GEO_MAXCYC           IOPTCY            400               ***   
       GEO_MAXSTEP          IMXSTP            300            millibohr
       GEO_METHOD           INR            SINGLE_POINT[  5]    ***   
       GIAO                 IGIAO          OFF         [  1]    ***   
       GIMIC                IGIMIC         OFF         [  0]    ***   
       GRID                 IGRID          OFF         [  0]    ***   
       GRID_ALGO            IGALGO         SERIAL      [  0]    ***   
       GUESS                IGUESS         MOREAD      [  0]    ***   
       HBAR                 IHBAR          OFF         [  0]    ***   
       HESS_TYPE            IHESTP         SCF         [  0]    ***   
       HF2_FILE             IHF2Fl         USE         [  1]    ***   
       HFSTABILITY          ISTABL         OFF         [  0]    ***   
       INCORE               INCORE         OFF         [  0]    ***   
       INPUT_MRCC           IMRCC          ON          [  1]    ***   
       INTEGRALS            INTTYP         VMOL        [  1]    ***   
       JODA_PRINT           IJPRNT              0               ***   
       KEYWORD_OUT          IDMPKW         NO          [  0]    ***   
       LINDEP_TOL           ILINDP              8               ***   
       LINEQ_CONV           IZTACN          10D- 12           cycles  
       LINEQ_EXPOR          ILMAXD              5               ***   
       LINEQ_MAXCY          ILMAXC            100               ***   
       LINEQ_TYPE           ILTYPE         DIIS        [  1]    ***   
       LOCK_ORBOCC          ILOCOC         OFF         [  0]    ***   
       MEMORY_SIZE          IMEMSZ         *********           words  
       MEM_UNIT             IMEMU          GB          [  3]    ***   
       MRCC                 IMRCCC         OFF         [  0]    ***   
       MULTIPLICTY          IMULTP              3               ***   
       NACOUPLING           IVCOUP         OFF         [  0]    ***   
       NEGEVAL              IDIE           ABORT       [  0]    ***   
       NEWNORM              INEWNO         OFF         [  0]    ***   
       NON-HF               INONHF         OFF         [  0]    ***   
       NTOP_TAMP            ITOPT2             15               ***   
       NUC_MODEL            INUCMO         POINT       [  0]    ***   
       OCCUPATION           IOCCU   ESTIMATED BY SCF 
       OPEN-SHELL           IOPEN          SPIN-ORBITAL[  0]    ***   
       OPTVIB               IOPTVB         OFF         [  0]    ***   
       ORBITALS             IORBTP         STANDARD    [  0]    ***   
       PARALLEL             IPARAL         ON          [  1]    ***   
       PARA_INT             IPINTS         ON          [  1]    ***   
       PARA_PRINT           IPPRIN              0               ***   
       PERT_ORB             IPTORB         CANONICAL   [  1]    ***   
       POINTS               IGRDFD              0               ***   
       PRINT                IPRNT               0               ***   
       PROPS                IPROPS         OFF         [  0]    ***   
       PROP_INTEGR          IINTYP         INTERNAL    [  0]    ***   
       PSI                  IPSI           OFF         [  0]    ***   
       QC_ALG               IQCALG         FLM         [  0]    ***   
       QC_LINALG            IQCLIN         TRIDIAG     [  2]    ***   
       QC_MAXCYC            IQCMAX          10D-100           cycles  
       QC_MAXSCFCY          IQCMSC          10D- 15           cycles  
       QC_RTRUST            IQCRTR          10D-  0           x 10-3  
       QC_SKIPSCF           IQCSKI         OFF         [  0]    ***   
       QC_START             IQCSTA          10D-  1             ***   
       QRHFGUESS            IQGUES         OFF         [  0]    ***   
       QUARTIC              IQUART         OFF         [  0]    ***   
       RAMAN_INT            IRAMIN         OFF         [  0]    ***   
       RAMAN_ORB            IRAMRE         UNRELAXED   [  0]    ***   
       RDO                  IRDOFM         ON          [  1]    ***   
       REDUCE_REPR          REDREP         Ir          [  0]    ***   
       REFERENCE            IREFNC         UHF         [  1]    ***   
       RELATIVIST           IRELAT         OFF         [  0]    ***   
       RELAX_DENS           IRDENS         ON          [  1]    ***   
       RESET_FLAGS          IRESET         OFF         [  0]    ***   
       RESTART_CC           ICCRES         OFF         [  0]    ***   
       ROT_EVEC             ROTVEC              0               ***   
       SAVE_INTS            ISVINT         OFF         [  0]    ***   
       SCALE_ON             ISTCRT              0               ***   
       SCF_CONV             ISCFCV          10D- 10             ***   
       SCF_DAMPING          IDAMP               0             x 10-3  
       SCF_EXPORDE          IRPPOR              6               ***   
       SCF_EXPSTAR          IRPPLS              8               ***   
       SCF_EXTRAPO          IRPP           ON          [  1]    ***   
       SCF_MAXCYC           ISCFCY            500              cycles 
       SCF_NOSTOP           ISCFST         OFF         [  0]    ***   
       SCF_PRINT            ISCFPR              0               ***   
       SCF_PROG             ISCFPR         SCF         [  0]    ***   
       SD_FIELD             IFINSD              0             x 10-6  
       SOPERT               IPERSO         OFF         [  0]    ***   
       SPHERICAL            IDFGHI         ON          [  1]    ***   
       SPINORBIT            ISOCAL         OFF         [  0]    ***   
       SPINROTATIO          ISRCON         OFF         [  0]    ***   
       SPIN_FLIP            ISPFLP         OFF         [  0]    ***   
       SPIN_ORBIT           ISPORB         OFF         [  0]    ***   
       SPIN_SCAL            ISCSMP         OFF         [  0]    ***   
       STEEPSCALE           ISTPSC              1000          x 10-3  
       SUBGROUP             ISUBGP         DEFAULT     [  0]    ***   
       SUBGRPAXIS           ISBXYZ         X           [  0]    ***   
       SYMMETRY             ISYM           ON          [  0]    ***   
       SYM_CHECK            ISYMCK         OVERRIDE    [  1]    ***   
       T3_EXTRAPOL          IT3EXT         OFF         [  0]    ***   
       T4_EXTRAPOL          IT4EXP         OFF         [  0]    ***   
       TAMP_SUM             IEVERY              5               ***   
       TESTSUITE            ITESTS         OFF         [  0]    ***   
       THERMOCH             ITHERM         OFF         [  0]    ***   
       TOL_CHOLESK          ITOLCH          10D-  4             ***   
       TRANGRAD             IRESRM         OFF         [  0]    ***   
       TRANS_INV            ITRAIN         USE         [  0]    ***   
       TREAT_PERT           ITREAT         SIMULTANEOUS[  0]    ***   
       TRIP_ALGORI          ITRALG         NORMAL      [  0]    ***   
       UIJ_THRESHO          IUIJTH              1               ***   
       UNITS                IUNITS         ANGSTROM    [  0]    ***   
       UNOS                 IUNOS          OFF         [  0]    ***   
       UPDATE_HESS          IHUPDT         ON          [  1]    ***   
       VIBPHASE             ISETPH         STANDARD    [  0]    ***   
       VIBRATION            IVIB           NO          [  0]    ***   
       VIB_ALGORIT          IGEALG         STANDARD    [  0]    ***   
       VNATORB              IVNORB         OFF         [  0]    ***   
       VTRAN                IVTRAN         FULL/PARTIAL[  0]    ***   
       XFIELD               IXEFLD              0             x 10-6  
       XFORM_TOL            IXFTOL          10D- 11             ***   
       YFIELD               IYEFLD              0             x 10-6  
       ZFIELD               IZEFLD              0             x 10-6  
       ZSCALE_EXP           IZEXPS         OFF         [  0]    ***   
    -------------------------------------------------------------------
  @GETXYZ-I,     4 atoms read from ZMAT.
   Rotational constants (in cm-1): 
          0.4602322250             0.4837812530             9.4548158193
   Rotational constants (in MHz): 
      13797.4169304093         14503.3991280449        283448.2871493653
********************************************************************************
   The full molecular point group is C2h .
   The largest Abelian subgroup of the full molecular point group is C2h .
   The computational point group is C2h .
********************************************************************************


 ----------------------------------------------------------------
         Coordinates used in calculation (QCOMP) 
 ----------------------------------------------------------------
 Z-matrix   Atomic            Coordinates (in bohr)
  Symbol    Number           X              Y              Z
 ----------------------------------------------------------------
     O         8        -1.91992834     0.10210021     0.00000000
     H         1        -1.79815469    -1.73014058     0.00000000
     O         8         1.91992834    -0.10210021     0.00000000
     H         1         1.79815469     1.73014058     0.00000000
 ----------------------------------------------------------------
 
   Interatomic distance matrix (Angstroms) 
 
                 O             H             O             H    
                [ 1]        [ 2]        [ 3]        [ 4]
  O    [ 1]     0.00000
  H    [ 2]     0.97172     0.00000
  O    [ 3]     2.03484     2.14788     0.00000
  H    [ 4]     2.14788     2.64096     0.97172     0.00000
 rotcon2
   Rotational constants (in cm-1): 
          9.4548158193             0.4837812530             0.4602322250
   Rotational constants (in MHz): 
     283448.2871493654         14503.3991280449         13797.4169304093
  There are   2 frozen-core orbitals.
  There are   2 frozen-core orbitals.
  There are  252 basis functions.
 @CHECKOUT-I, Total execution time (CPU/WALL):        0.09/       0.12 seconds.
--executable xjoda finished with status     0 in        0.18 seconds (walltime).
 --invoking executable--
/apps/eb/cfour/2.1-iompi-2018a-serial/bin/xvmol
 SERIAL VERSION OF MOLECULE STARTED
********************************************************************************
                    INPUT FROM MOL FILE
********************************************************************************
INTGRL        1    0    1    0    0    0    0    0    0                         
         *** CFOUR Program System (Release V0.1) ***                            
CFOUR Optimization JOB                                                          
    2    2 Z  XY      0.10E-08              0    0                              
   9999.00      3.00                                                            
          8.00000000    1    5    1    1    1    1    1                         
O #1  -1.919928336079098   0.102100210853771   0.000000000000000                
   13    6                                                                      
   61420.0000000000       9.000000000000001E-005 -2.000000000000000E-005        
  0.000000000000000E+000  0.000000000000000E+000  0.000000000000000E+000        
  0.000000000000000E+000                                                        
   9199.00000000000       6.980000000000001E-004 -1.590000000000000E-004        
  0.000000000000000E+000  0.000000000000000E+000  0.000000000000000E+000        
  0.000000000000000E+000                                                        
   2091.00000000000       3.664000000000000E-003 -8.290000000000000E-004        
  0.000000000000000E+000  0.000000000000000E+000  0.000000000000000E+000        
  0.000000000000000E+000                                                        
   590.900000000000       1.521800000000000E-002 -3.508000000000000E-003        
  0.000000000000000E+000  0.000000000000000E+000  0.000000000000000E+000        
  0.000000000000000E+000                                                        
   192.300000000000       5.242300000000000E-002 -1.215600000000000E-002        
  0.000000000000000E+000  0.000000000000000E+000  0.000000000000000E+000        
  0.000000000000000E+000                                                        
   69.3200000000000       0.145921000000000      -3.626100000000000E-002        
  0.000000000000000E+000  0.000000000000000E+000  0.000000000000000E+000        
  0.000000000000000E+000                                                        
   26.9700000000000       0.305258000000000      -8.299200000000000E-002        
  0.000000000000000E+000  0.000000000000000E+000  0.000000000000000E+000        
  0.000000000000000E+000                                                        
   11.1000000000000       0.398508000000000      -0.152090000000000             
  0.000000000000000E+000  0.000000000000000E+000  0.000000000000000E+000        
  0.000000000000000E+000                                                        
   4.68200000000000       0.216980000000000      -0.115331000000000             
  0.000000000000000E+000  0.000000000000000E+000  0.000000000000000E+000        
  0.000000000000000E+000                                                        
   1.42800000000000       1.759400000000000E-002  0.288979000000000             
   1.00000000000000       0.000000000000000E+000  0.000000000000000E+000        
  0.000000000000000E+000                                                        
  0.554700000000000      -2.502000000000000E-003  0.586128000000000             
  0.000000000000000E+000   1.00000000000000       0.000000000000000E+000        
  0.000000000000000E+000                                                        
  0.206700000000000       9.540000000000000E-004  0.277624000000000             
  0.000000000000000E+000  0.000000000000000E+000   1.00000000000000             
  0.000000000000000E+000                                                        
  6.959000000000000E-002  0.000000000000000E+000  0.000000000000000E+000        
  0.000000000000000E+000  0.000000000000000E+000  0.000000000000000E+000        
   1.00000000000000                                                             
    7    5                                                                      
   63.4200000000000       6.044000000000000E-003  0.000000000000000E+000        
  0.000000000000000E+000  0.000000000000000E+000  0.000000000000000E+000        
   14.6600000000000       4.179900000000000E-002  0.000000000000000E+000        
  0.000000000000000E+000  0.000000000000000E+000  0.000000000000000E+000        
   4.45900000000000       0.161143000000000       0.000000000000000E+000        
  0.000000000000000E+000  0.000000000000000E+000  0.000000000000000E+000        
   1.53100000000000       0.356731000000000        1.00000000000000             
  0.000000000000000E+000  0.000000000000000E+000  0.000000000000000E+000        
  0.530200000000000       0.448309000000000       0.000000000000000E+000        
   1.00000000000000       0.000000000000000E+000  0.000000000000000E+000        
  0.175000000000000       0.244940000000000       0.000000000000000E+000        
  0.000000000000000E+000   1.00000000000000       0.000000000000000E+000        
  5.348000000000000E-002  0.000000000000000E+000  0.000000000000000E+000        
  0.000000000000000E+000  0.000000000000000E+000   1.00000000000000             
    4    4                                                                      
   3.77500000000000        1.00000000000000       0.000000000000000E+000        
  0.000000000000000E+000  0.000000000000000E+000                                
   1.30000000000000       0.000000000000000E+000   1.00000000000000             
  0.000000000000000E+000  0.000000000000000E+000                                
  0.444000000000000       0.000000000000000E+000  0.000000000000000E+000        
   1.00000000000000       0.000000000000000E+000                                
  0.154000000000000       0.000000000000000E+000  0.000000000000000E+000        
  0.000000000000000E+000   1.00000000000000                                     
    3    3                                                                      
   2.66600000000000        1.00000000000000       0.000000000000000E+000        
  0.000000000000000E+000                                                        
  0.859000000000000       0.000000000000000E+000   1.00000000000000             
  0.000000000000000E+000                                                        
  0.324000000000000       0.000000000000000E+000  0.000000000000000E+000        
   1.00000000000000                                                             
    2    2                                                                      
   1.84600000000000        1.00000000000000       0.000000000000000E+000        
  0.714000000000000       0.000000000000000E+000   1.00000000000000             
          1.00000000    1    4    1    1    1    1                              
H #2  -1.798154690229985  -1.730140575426834   0.000000000000000                
    7    5                                                                      
   82.6400000000000       2.006000000000000E-003  0.000000000000000E+000        
  0.000000000000000E+000  0.000000000000000E+000  0.000000000000000E+000        
   12.4100000000000       1.534300000000000E-002  0.000000000000000E+000        
  0.000000000000000E+000  0.000000000000000E+000  0.000000000000000E+000        
   2.82400000000000       7.557899999999999E-002  0.000000000000000E+000        
  0.000000000000000E+000  0.000000000000000E+000  0.000000000000000E+000        
  0.797700000000000       0.256875000000000        1.00000000000000             
  0.000000000000000E+000  0.000000000000000E+000  0.000000000000000E+000        
  0.258100000000000       0.497368000000000       0.000000000000000E+000        
   1.00000000000000       0.000000000000000E+000  0.000000000000000E+000        
  8.989000000000000E-002  0.296133000000000       0.000000000000000E+000        
  0.000000000000000E+000   1.00000000000000       0.000000000000000E+000        
  2.363000000000000E-002  0.000000000000000E+000  0.000000000000000E+000        
  0.000000000000000E+000  0.000000000000000E+000   1.00000000000000             
    4    4                                                                      
   2.29200000000000        1.00000000000000       0.000000000000000E+000        
  0.000000000000000E+000  0.000000000000000E+000                                
  0.838000000000000       0.000000000000000E+000   1.00000000000000             
  0.000000000000000E+000  0.000000000000000E+000                                
  0.292000000000000       0.000000000000000E+000  0.000000000000000E+000        
   1.00000000000000       0.000000000000000E+000                                
  8.480000000000000E-002  0.000000000000000E+000  0.000000000000000E+000        
  0.000000000000000E+000   1.00000000000000                                     
    3    3                                                                      
   2.06200000000000        1.00000000000000       0.000000000000000E+000        
  0.000000000000000E+000                                                        
  0.662000000000000       0.000000000000000E+000   1.00000000000000             
  0.000000000000000E+000                                                        
  0.190000000000000       0.000000000000000E+000  0.000000000000000E+000        
   1.00000000000000                                                             
    2    2                                                                      
   1.39700000000000        1.00000000000000       0.000000000000000E+000        
  0.360000000000000       0.000000000000000E+000   1.00000000000000             
FINISH                                                                          
 
********************************************************************************
 ONE- AND TWO-ELECTRON INTEGRALS OVER SYMMETRY-ADAPTED AOS ARE CALCULATED.

  SPHERICAL HARMONICS ARE USED.
  
  INTEGRALS LESS THAN  0.10E-13 ARE NEGLECTED.

  NUCLEAR REPULSION ENERGY :   29.4993542516 A.U.
  @MOLECU-I, ONE ELECTRON INTEGRALS (CPU/WALL):        0.09/       0.09 SECONDS.
  @TWOEL-I,   11670482 INTEGRALS OF SYMMETRY TYPE  I I I I
  @TWOEL-I,   49815146 INTEGRALS OF SYMMETRY TYPE  I J I J
  @TWOEL-I,   25675921 INTEGRALS OF SYMMETRY TYPE  I I J J
  @TWOEL-I,   40627200 INTEGRALS OF SYMMETRY TYPE  I J K L
  @TWOEL-I, TOTAL NUMBER OF 2-E INTEGRALS  127788749.
  @MOLECU-I, TWO ELECTRON INTEGRALS (CPU/WALL):       53.06/      53.83 SECONDS.
 @CHECKOUT-I, Total execution time (CPU/WALL):       53.16/      53.94 seconds.

Running with 12 threads/proc

--executable xvmol finished with status     0 in       54.00 seconds (walltime).
 --invoking executable--
/apps/eb/cfour/2.1-iompi-2018a-serial/bin/xvmol2ja
 @GETMEM-I,  Allocated   38146 MB of main memory.
 @CHECKOUT-I, Total execution time (CPU/WALL):        0.02/       0.03 seconds.
--executable xvmol2ja finished with status     0 in        0.10 seconds (walltime).
 --invoking executable--
/apps/eb/cfour/2.1-iompi-2018a-serial/bin/xvscf
  There are  252 functions in the AO basis.

  There are 4 irreducible representations.

       Irrep        # of functions
         1                 80
         2                 46
         3                 80
         4                 46


  Parameters for SCF calculation: 
        SCF reference function:  UHF  
  Maximum number of iterations:  500
     Full symmetry point group: C2h 
     Computational point group: C2h 
        Initial density matrix: CORE                   
     SCF convergence tolerance: 10**(-10)
  DIIS convergence acceleration:  ON
          Latest start for DIIS:   8
                     DIIS order:   6

  Memory information:    3420602 words required.
  Fock matrices are constructed from AO integral file.
 @GETMEM-I,  Allocated      26 MB of main memory.
  Initialization and symmetry analysis required      0.001 seconds.

  @INITGES-I, Occupancies from core Hamiltonian:

          Alpha population by irrep:   4    1    4    1
           Beta population by irrep:   3    1    3    1


 total no. of electrons in initial guess :  0.000000000000000E+000
 total no. of electrons in initial guess :  0.000000000000000E+000
  --------------------------------------------------------------------
  Iteration         Total Energy            Largest Density Difference
  --------------------------------------------------------------------
       0            29.499354251602668              0.0000000000D+00
   current occupation vector 
     4  1  4  1
     3  1  3  1
       1          -126.020776980704042              0.4456240478D+01
   current occupation vector 
     4  1  4  1
     3  1  3  1
       2          -127.041184945870427              0.3916161090D+02
   current occupation vector 
     5  1  4  0
     3  1  4  0
       3          -144.215931964114873              0.3916132579D+02
   current occupation vector 
     4  1  4  1
     3  1  3  1
       4          -137.962444906312498              0.4494379761D+02
   current occupation vector 
     4  1  5  0
     4  0  4  0
       5          -146.832757004763266              0.4494635946D+02
   current occupation vector 
     4  1  4  1
     3  1  3  1
       6          -143.909068777495008              0.6965847900D+01
   current occupation vector 
     5  1  4  0
     4  0  4  0
       7          -148.377286481779436              0.6966069973D+01
   current occupation vector 
     4  1  4  1
     4  1  3  0
       8          -147.457265909664500              0.6332845927D+01
   current occupation vector 
     4  1  4  1
     4  0  4  0
       9          -150.670577091416760              0.6332910824D+01
   current occupation vector 
     4  1  4  1
     4  1  3  0
      10          -150.743494292451601              0.8213942682D-01
   current occupation vector 
     4  1  4  1
     4  1  3  0
      11          -150.754859058839372              0.3685345763D-01
   current occupation vector 
     4  1  4  1
     4  1  3  0
      12          -150.757754303422985              0.1808059116D-01
   current occupation vector 
     4  1  4  1
     4  1  3  0
      13          -150.758289680482449              0.1186146196D-01
   current occupation vector 
     4  1  4  1
     4  1  3  0
      14          -150.758308867033463              0.1274951400D-02
   current occupation vector 
     4  1  4  1
     4  1  3  0
      15          -150.758313627746304              0.8257737001D-03
   current occupation vector 
     4  1  4  1
     4  1  3  0
      16          -150.758314254573463              0.2366111549D-03
   current occupation vector 
     4  1  4  1
     4  1  3  0
      17          -150.758314331295139              0.9048991903D-04
   current occupation vector 
     4  1  4  1
     4  1  3  0
      18          -150.758314335668786              0.2312506304D-04
   current occupation vector 
     4  1  4  1
     4  1  3  0
      19          -150.758314336285878              0.6962688909D-05
   current occupation vector 
     4  1  4  1
     4  1  3  0
      20          -150.758314336553042              0.5977643958D-05
   current occupation vector 
     4  1  4  1
     4  1  3  0
      21          -150.758314336633191              0.3863267074D-05
   current occupation vector 
     4  1  4  1
     4  1  3  0
      22          -150.758314336640183              0.1174173058D-05
   current occupation vector 
     4  1  4  1
     4  1  3  0
      23          -150.758314336644560              0.5202072412D-06
   current occupation vector 
     4  1  4  1
     4  1  3  0
      24          -150.758314336642457              0.3036770986D-06
   current occupation vector 
     4  1  4  1
     4  1  3  0
      25          -150.758314336640467              0.1492406449D-06
   current occupation vector 
     4  1  4  1
     4  1  3  0
      26          -150.758314336640296              0.1569702590D-07
   current occupation vector 
     4  1  4  1
     4  1  3  0
      27          -150.758314336639728              0.3226541978D-08
   current occupation vector 
     4  1  4  1
     4  1  3  0
      28          -150.758314336640694              0.7554159520D-09
   current occupation vector 
     4  1  4  1
     4  1  3  0
      29          -150.758314336639899              0.3335656751D-09
   current occupation vector 
     4  1  4  1
     4  1  3  0
      30          -150.758314336640638              0.1804409400D-09
   current occupation vector 
     4  1  4  1
     4  1  3  0
      31          -150.758314336639785              0.1083660939D-09
   current occupation vector 
     4  1  4  1
     4  1  3  0

  SCF has converged.

 Density matrix saved to file den.dat
 total alpha spin electron number:   9.99999999999997     
 total  beta spin electron number:   8.00000000000001     
     E(SCF)=      -150.758314336641661              0.6554567999D-10


  Final occupancies:

     Alpha population by irrep:   4    1    4    1
      Beta population by irrep:   4    1    3    0


  Eigenvector printing suppressed.


       The average multiplicity is    3.0839284
  The expectation value of S**2 is    2.1276536

 @PUTMOS-I, Writing converged MOs to NEWMOS. 
 @PUTMOS-I, Symmetry   1 Full Blocks 20 Partial Blocksize   0
 @PUTMOS-I, Symmetry   2 Full Blocks 11 Partial Blocksize   2
 @PUTMOS-I, Symmetry   3 Full Blocks 20 Partial Blocksize   0
 @PUTMOS-I, Symmetry   4 Full Blocks 11 Partial Blocksize   2
 @PUTFOCK-I, Writing converged Fock matrix to NEWFOCK. 
 @PUTFOCK-I, Symmetry   1 Full Blocks 20 Partial Blocksize   0
 @PUTFOCK-I, Symmetry   2 Full Blocks 11 Partial Blocksize   2
 @PUTFOCK-I, Symmetry   3 Full Blocks 20 Partial Blocksize   0
 @PUTFOCK-I, Symmetry   4 Full Blocks 11 Partial Blocksize   2


 
  ORBITAL EIGENVALUES (ALPHA)  (1H = 27.2113834 eV)

       MO #        E(hartree)               E(eV)           FULLSYM    COMPSYM
       ----   --------------------   --------------------   -------   ---------
    1   127         -20.6859703089        -562.8938690766      Bu        Bu (3)
    2     1         -20.6859380846        -562.8929922099      Ag        Ag (1)
    3     2          -1.4533745571         -39.5483322973      Ag        Ag (1)
    4   128          -1.3974854116         -38.0275113313      Bu        Bu (3)
    5   129          -0.7315767287         -19.9072148504      Bu        Bu (3)
    6     3          -0.7146283567         -19.4460262038      Ag        Ag (1)
    7     4          -0.6880630914         -18.7231485830      Ag        Ag (1)
    8    81          -0.6691675336         -18.2089743165      Au        Au (2)
    9   207          -0.6320658563         -17.1993863490      Bg        Bg (4)
   10   130          -0.5737428010         -15.6123353311      Bu        Bu (3)
  +++++++++++++++++++++++++++++++++++++++++++++++++++++++++++++++++++++++++++++
   11     5           0.0301076432           0.8192706216      Ag        Ag (1)
   12   131           0.0401702950           1.0930892972      Bu        Bu (3)
   13   132           0.0977206841           2.6591150013      Bu        Bu (3)
   14    82           0.1254867488           3.4146680320      Au        Au (2)
   15     6           0.1295774257           3.5259810118      Ag        Ag (1)
   16     7           0.1386650135           3.7732668470      Ag        Ag (1)
   17   133           0.1495344211           4.0690384642      Bu        Bu (3)
   18     8           0.1648058406           4.4845949159      Ag        Ag (1)
   19   208           0.1677474556           4.5646403291      Bg        Bg (4)
   20   209           0.2012793510           5.4770895912      Bg        Bg (4)
   21     9           0.2240588740           6.0969519249      Ag        Ag (1)
   22   134           0.2283010139           6.2123864198      Bu        Bu (3)
   23   135           0.2496856468           6.7942918656      Bu        Bu (3)
   24    83           0.2675347220           7.2799898937      Au        Au (2)
   25   136           0.3030790362           8.2471998542      Bu        Bu (3)
   26    10           0.3325904008           9.0502449106      Ag        Ag (1)
   27    11           0.3536819238           9.6241744293      Ag        Ag (1)
   28   137           0.3605352915           9.8106640472      Bu        Bu (3)
   29    12           0.5080232875          13.8240164520      Ag        Ag (1)
   30    84           0.5088661021          13.8469506035      Au        Au (2)
   31   138           0.5235076627          14.2453677231      Bu        Bu (3)
   32   210           0.5254987936          14.2995491488      Bg        Bg (4)
   33   139           0.5323931644          14.4871545150      Bu        Bu (3)
   34    85           0.5675249847          15.4431399478      Au        Au (2)
   35   140           0.5736809659          15.6106527137      Bu        Bu (3)
   36    13           0.5889189358          16.0252989538      Ag        Ag (1)
   37   211           0.6063664735          16.5000705922      Bg        Bg (4)
   38    14           0.6175638351          16.8047662908      Ag        Ag (1)
   39   141           0.6300854475          17.1454966873      Bu        Bu (3)
   40    86           0.6502509799          17.6942287194      Au        Au (2)
   41    15           0.6712631487          18.2659989025      Ag        Ag (1)
   42   212           0.6852259139          18.6459450580      Bg        Bg (4)
   43    87           0.7138179879          19.4239749466      Au        Au (2)
   44   213           0.7297602465          19.8577858570      Bg        Bg (4)
   45    16           0.7318736064          19.9152933032      Ag        Ag (1)
   46    17           0.7522323690          20.4692833975      Ag        Ag (1)
   47   142           0.7668979077          20.8683529954      Bu        Bu (3)
   48    18           0.7696359564          20.9428590889      Ag        Ag (1)
   49   143           0.7754877367          21.1020941264      Bu        Bu (3)
   50   144           0.8397806264          22.8515925959      Bu        Bu (3)
   51   145           0.8858194669          24.1043731374      Bu        Bu (3)
   52   214           0.8893456349          24.2003250452      Bg        Bg (4)
   53    88           0.9258609587          25.1939575221      Au        Au (2)
   54    19           0.9347071698          25.4346751655      Ag        Ag (1)
   55   146           1.0310202811          28.0554881611      Bu        Bu (3)
   56    20           1.0392495999          28.2794193118      Ag        Ag (1)
   57   147           1.1313105261          30.7845244712      Bu        Bu (3)
   58   215           1.1475686791          31.2269313035      Bg        Bg (4)
   59    89           1.1713762331          31.8747677843      Au        Au (2)
   60    21           1.2259695368          33.3603271018      Ag        Ag (1)
   61    90           1.3164019969          35.8211194472      Au        Au (2)
   62    22           1.3200852652          35.9213462723      Ag        Ag (1)
   63   148           1.3965732972          38.0026914361      Bu        Bu (3)
   64    23           1.4018642840          38.1466665074      Ag        Ag (1)
   65    24           1.4826999117          40.3463157635      Ag        Ag (1)
   66   149           1.4875879279          40.4793254463      Bu        Bu (3)
   67    91           1.4936145340          40.6433177358      Au        Au (2)
   68   216           1.4965888070          40.7242518190      Bg        Bg (4)
   69    25           1.5141064185          41.2009302625      Ag        Ag (1)
   70   217           1.5332522634          41.7219151891      Bg        Bg (4)
   71   150           1.5356230386          41.7864272619      Bu        Bu (3)
   72   218           1.5815537525          43.0362655265      Bg        Bg (4)
   73   151           1.5896453261          43.2564484379      Bu        Bu (3)
   74    92           1.6163932259          43.9842957963      Au        Au (2)
   75    26           1.6216070827          44.1261720518      Ag        Ag (1)
   76   152           1.6342931672          44.4713779596      Bu        Bu (3)
   77   153           1.6637731148          45.2735681185      Bu        Bu (3)
   78    93           1.6680654066          45.3903673141      Au        Au (2)
   79   219           1.7117397159          46.5788056909      Bg        Bg (4)
   80    27           1.7405088914          47.3616547548      Ag        Ag (1)
   81    94           1.7449188747          47.4816565010      Au        Au (2)
   82   154           1.7490678086          47.5945547321      Bu        Bu (3)
   83    28           1.7504200498          47.6313510861      Ag        Ag (1)
   84   155           1.7770272588          48.3553700518      Bu        Bu (3)
   85    29           1.8187993311          49.4920459269      Ag        Ag (1)
   86   156           1.8908101671          51.4515603943      Bu        Bu (3)
   87    30           1.8964131555          51.6040254588      Ag        Ag (1)
   88   220           1.8964349527          51.6046185910      Bg        Bg (4)
   89   221           1.9420113095          52.8448143113      Bg        Bg (4)
   90    31           1.9503274916          53.0711091294      Ag        Ag (1)
   91    95           2.0113272595          54.7309972019      Au        Au (2)
   92   157           2.0311285509          55.2698177339      Bu        Bu (3)
   93   222           2.0993147500          57.1252585398      Bg        Bg (4)
   94    96           2.1295014706          57.9466809683      Au        Au (2)
   95    32           2.1438005994          58.3357800432      Ag        Ag (1)
   96   223           2.1493795902          58.4875921022      Bg        Bg (4)
   97   158           2.1681733085          58.9989951749      Bu        Bu (3)
   98    33           2.2190723614          60.3840288183      Ag        Ag (1)
   99   159           2.3026581065          62.6585125759      Bu        Bu (3)
  100    97           2.3272779846          63.3284535163      Au        Au (2)
  101   160           2.3971882220          65.2308077905      Bu        Bu (3)
  102    34           2.4204299015          65.8632460436      Ag        Ag (1)
  103    35           2.4910486155          67.7848789451      Ag        Ag (1)
  104    98           2.5993974204          70.7331998151      Au        Au (2)
  105   161           2.6266259970          71.4741270536      Bu        Bu (3)
  106   224           2.6529262478          72.1897932614      Bg        Bg (4)
  107    36           2.8638633278          77.9296830175      Ag        Ag (1)
  108   162           2.9235439835          79.5536762209      Bu        Bu (3)
  109   225           2.9373758065          79.9300592612      Bg        Bg (4)
  110    99           2.9547048198          80.4016056851      Au        Au (2)
  111    37           3.0182333136          82.1303038861      Ag        Ag (1)
  112   100           3.0461236069          82.8892373513      Au        Au (2)
  113    38           3.0658253517          83.4253490812      Ag        Ag (1)
  114   163           3.0866819537          83.9928860751      Bu        Bu (3)
  115   226           3.0884107107          84.0399279466      Bg        Bg (4)
  116   164           3.1039147734          84.4618149405      Bu        Bu (3)
  117   165           3.1687553830          86.2262176273      Bu        Bu (3)
  118    39           3.4237682086          93.1654693975      Ag        Ag (1)
  119   101           3.4964148205          95.1422842051      Au        Au (2)
  120    40           3.5147716010          95.6417975983      Ag        Ag (1)
  121    41           3.6418834902          99.1006879512      Ag        Ag (1)
  122   166           3.6617548562          99.6414153095      Bu        Bu (3)
  123   227           3.7623616858         102.3790663229      Bg        Bg (4)
  124   102           3.7999091730         103.4007853929      Au        Au (2)
  125    42           3.8091400412         103.6519700856      Ag        Ag (1)
  126   167           3.8230347611         104.0300646347      Bu        Bu (3)
  127   228           3.9540406283         107.5949155168      Bg        Bg (4)
  128   168           3.9602082984         107.7627463523      Bu        Bu (3)
  129    43           3.9742227662         108.1440994082      Ag        Ag (1)
  130   103           4.0081143709         109.0663368578      Au        Au (2)
  131   169           4.0372574112         109.8593593018      Bu        Bu (3)
  132   229           4.0410450779         109.9624269505      Bg        Bg (4)
  133    44           4.0636702375         110.5780888442      Ag        Ag (1)
  134    45           4.1229280125         112.1905748786      Ag        Ag (1)
  135   104           4.1279026800         112.3259424634      Au        Au (2)
  136   230           4.1828995776         113.8224841293      Bg        Bg (4)
  137   170           4.1900788764         114.0178427812      Bu        Bu (3)
  138    46           4.2194751070         114.8177548821      Ag        Ag (1)
  139   105           4.2379780695         115.3212460898      Au        Au (2)
  140   171           4.2592017017         115.8987704830      Bu        Bu (3)
  141   231           4.2600250726         115.9211755430      Bg        Bg (4)
  142   172           4.2940081471         116.8459020140      Bu        Bu (3)
  143    47           4.3127100384         117.3548063479      Ag        Ag (1)
  144   232           4.3170632701         117.4732638036      Bg        Bg (4)
  145   106           4.3927020154         119.5314987028      Au        Au (2)
  146    48           4.4575584915         121.2963331388      Ag        Ag (1)
  147   107           4.4665879893         121.5420382679      Au        Au (2)
  148   173           4.4871031119         122.1002831320      Bu        Bu (3)
  149   174           4.5495120967         123.7985179462      Bu        Bu (3)
  150   175           4.6773768298         127.2778942207      Bu        Bu (3)
  151    49           4.6919809137         127.6752915477      Ag        Ag (1)
  152   233           4.7100156102         128.1660405886      Bg        Bg (4)
  153   176           4.7377944508         128.9219412717      Bu        Bu (3)
  154   108           4.7478644489         129.1959598508      Au        Au (2)
  155   234           4.7558122065         129.4122293291      Bg        Bg (4)
  156   109           4.9173532034         133.8079833314      Au        Au (2)
  157    50           4.9234304676         133.9733540968      Ag        Ag (1)
  158   177           4.9580739814         134.9160520347      Bu        Bu (3)
  159    51           5.1336070706         139.6925502232      Ag        Ag (1)
  160   178           5.2520137624         142.9145601101      Bu        Bu (3)
  161   235           5.2571985848         143.0556463016      Bg        Bg (4)
  162    52           5.3419749548         145.3625286094      Ag        Ag (1)
  163    53           5.4177790015         147.4252615868      Ag        Ag (1)
  164   179           5.4992862011         149.6431852435      Bu        Bu (3)
  165   110           5.5581047428         151.2437191346      Au        Au (2)
  166   236           5.6092183633         152.6345914589      Bg        Bg (4)
  167    54           5.6448137441         153.6031910129      Ag        Ag (1)
  168   180           5.9309483417         161.3893092502      Bu        Bu (3)
  169    55           6.0210823512         163.8419803409      Ag        Ag (1)
  170   181           6.1695451839         167.8818594038      Bu        Bu (3)
  171   237           6.8161132008         185.4758696047      Bg        Bg (4)
  172    56           6.8248519939         185.7136642533      Ag        Ag (1)
  173   111           6.8707746651         186.9632836684      Au        Au (2)
  174   182           6.8731840174         187.0288454758      Bu        Bu (3)
  175   238           7.6652196959         208.5812319917      Bg        Bg (4)
  176   183           7.6821143309         209.0409583802      Bu        Bu (3)
  177   239           7.7568651253         211.0750309078      Bg        Bg (4)
  178   112           7.7707934375         211.4540395500      Au        Au (2)
  179    57           7.8112199142         212.5540999070      Ag        Ag (1)
  180   184           7.8235413521         212.8893832768      Bu        Bu (3)
  181   113           7.8794239226         214.4100253278      Au        Au (2)
  182   185           7.9171291826         215.4360376140      Bu        Bu (3)
  183    58           8.0619421326         219.3765983182      Ag        Ag (1)
  184    59           8.1786447315         222.5522374814      Ag        Ag (1)
  185   114           8.5473031857         232.5839440224      Au        Au (2)
  186    60           8.5557274057         232.8131787028      Ag        Ag (1)
  187   186           8.5665476616         233.1076128347      Bu        Bu (3)
  188   240           8.6569555895         235.5677376228      Bg        Bg (4)
  189   115           8.6967623486         236.6509346061      Au        Au (2)
  190    61           8.7035197132         236.8348118453      Ag        Ag (1)
  191   241           8.7701982299         238.6492265274      Bg        Bg (4)
  192   187           8.7718354518         238.6937775995      Bu        Bu (3)
  193    62           8.8385217020         240.5084027221      Ag        Ag (1)
  194   188           9.2535545516         251.8020207165      Bu        Bu (3)
  195   189           9.7775804716         266.0614909374      Bu        Bu (3)
  196   242           9.8012750653         266.7062536099      Bg        Bg (4)
  197    63           9.8103430580         266.9530062360      Ag        Ag (1)
  198   116           9.8239574546         267.3234728028      Au        Au (2)
  199   190           9.9392341597         270.4603114218      Bu        Bu (3)
  200    64           9.9933413891         271.9326439864      Ag        Ag (1)
  201    65          10.6639287779         290.1802545258      Ag        Ag (1)
  202   117          10.6831868427         290.7042931104      Au        Au (2)
  203   191          10.7353394189         292.1234368566      Bu        Bu (3)
  204    66          10.7438434369         292.3548429506      Ag        Ag (1)
  205   243          10.7519256638         292.5747715264      Bg        Bg (4)
  206   192          10.7967230875         293.7937713981      Bu        Bu (3)
  207   244          10.8201917130         294.4323851642      Bg        Bg (4)
  208   118          10.8355818102         294.8511710007      Au        Au (2)
  209    67          10.8398589667         294.9675583457      Ag        Ag (1)
  210   119          10.8845272865         296.1830451219      Au        Au (2)
  211   193          10.8940721537         296.4427741604      Bu        Bu (3)
  212   245          10.9273468542         297.3482247953      Bg        Bg (4)
  213    68          11.0192261733         299.8483881736      Ag        Ag (1)
  214   194          11.1908204751         304.5177065092      Bu        Bu (3)
  215   120          11.2059521846         304.9294612569      Au        Au (2)
  216   246          11.3040111298         307.5977808105      Bg        Bg (4)
  217    69          11.4298961048         311.0232851303      Ag        Ag (1)
  218   195          11.4642172480         311.9572109153      Bu        Bu (3)
  219   247          11.5110085814         313.2304678296      Bg        Bg (4)
  220   121          11.5373648775         313.9476591063      Au        Au (2)
  221    70          11.6000631706         315.6537663981      Ag        Ag (1)
  222   196          11.6704095851         317.5679896560      Bu        Bu (3)
  223   197          11.7227650262         318.9926536347      Bu        Bu (3)
  224   122          11.9278405448         324.5730421981      Au        Au (2)
  225    71          11.9288448298         324.6003701822      Ag        Ag (1)
  226    72          11.9797928517         325.9867363410      Ag        Ag (1)
  227   248          11.9901648917         326.2689738984      Bg        Bg (4)
  228   123          12.0037404081         326.6383824801      Au        Au (2)
  229   249          12.0335795876         327.4503478331      Bg        Bg (4)
  230   198          12.0962810253         329.1565406924      Bu        Bu (3)
  231   199          12.1749484921         331.2971912925      Bu        Bu (3)
  232    73          12.1815943225         331.4780335321      Ag        Ag (1)
  233   200          12.2804743781         334.1686966351      Bu        Bu (3)
  234    74          12.4567945310         338.9666119180      Ag        Ag (1)
  235   124          12.6918408221         345.3625466622      Au        Au (2)
  236   250          12.6962462072         345.4824232855      Bg        Bg (4)
  237    75          12.7094659325         345.8421502980      Ag        Ag (1)
  238   125          12.7894255695         348.0179626362      Au        Au (2)
  239   201          12.8243318028         348.9678095338      Bu        Bu (3)
  240   251          13.0777443885         355.8635165623      Bg        Bg (4)
  241    76          13.1127421692         356.8158545919      Ag        Ag (1)
  242   202          13.5598460746         368.9821703822      Bu        Bu (3)
  243    77          14.4192647442         392.3681413015      Ag        Ag (1)
  244   203          14.4448034406         393.0630845588      Bu        Bu (3)
  245   252          14.4626684238         393.5492154683      Bg        Bg (4)
  246   126          14.4682151178         393.7001486849      Au        Au (2)
  247   204          14.4715858407         393.7918707173      Bu        Bu (3)
  248    78          14.5497123762         395.9178018279      Ag        Ag (1)
  249    79          16.8917536325         459.6479843926      Ag        Ag (1)
  250   205          16.9015433432         459.9143759644      Bu        Bu (3)
  251    80          43.5232608300        1184.3281372640      Ag        Ag (1)
  252   206          43.6957413327        1189.0215703513      Bu        Bu (3)


 
  ORBITAL EIGENVALUES ( BETA)  (1H = 27.2113834 eV)

       MO #        E(hartree)               E(eV)           FULLSYM    COMPSYM
       ----   --------------------   --------------------   -------   ---------
    1     1         -20.6273219997        -561.2979674500      Ag        Ag (1)
    2   127         -20.6272014267        -561.2946864909      Bu        Bu (3)
    3     2          -1.2731160695         -34.6432494808      Ag        Ag (1)
    4   128          -1.1951064536         -32.5204999126      Bu        Bu (3)
    5   129          -0.6760213590         -18.3954763851      Bu        Bu (3)
    6     3          -0.6281459078         -17.0927191281      Ag        Ag (1)
    7     4          -0.4104133721         -11.1679156202      Ag        Ag (1)
    8    81          -0.3308702667          -9.0034376840      Au        Au (2)
  +++++++++++++++++++++++++++++++++++++++++++++++++++++++++++++++++++++++++++++
    9   207          -0.0235999562          -0.6421874569      Bg        Bg (4)
   10     5           0.0296118671           0.8057798688      Ag        Ag (1)
   11   130           0.0300791028           0.8184939998      Bu        Bu (3)
   12   131           0.0595092755           1.6193297128      Bu        Bu (3)
   13   132           0.1073100384           2.9200545970      Bu        Bu (3)
   14     6           0.1323590930           3.6016740261      Ag        Ag (1)
   15    82           0.1399417922           3.8080097614      Au        Au (2)
   16     7           0.1406471459           3.8272034119      Ag        Ag (1)
   17     8           0.1665308587           4.5315350434      Ag        Ag (1)
   18   133           0.1667666357           4.5379508610      Bu        Bu (3)
   19   208           0.1766243871           4.8061939148      Bg        Bg (4)
   20   209           0.2052003137           5.5837844110      Bg        Bg (4)
   21     9           0.2199304930           5.9846129668      Ag        Ag (1)
   22   134           0.2292308805           6.2376893759      Bu        Bu (3)
   23   135           0.2497685235           6.7965470537      Bu        Bu (3)
   24    83           0.2760384879           7.5113891283      Au        Au (2)
   25   136           0.3095044129           8.4220432436      Bu        Bu (3)
   26    10           0.3420026472           9.3063651559      Ag        Ag (1)
   27    11           0.3624896965           9.8638461114      Ag        Ag (1)
   28   137           0.3701023909          10.0709980574      Bu        Bu (3)
   29    12           0.5019696009          13.6592872665      Ag        Ag (1)
   30    84           0.5069983175          13.7961256019      Au        Au (2)
   31   210           0.5201579948          14.1542186245      Bg        Bg (4)
   32   138           0.5300310945          14.4228793262      Bu        Bu (3)
   33   139           0.5370493024          14.6138544710      Bu        Bu (3)
   34    85           0.5679182324          15.4538407628      Au        Au (2)
   35   140           0.5834227316          15.8757396330      Bu        Bu (3)
   36    13           0.5947122683          16.1829435444      Ag        Ag (1)
   37    14           0.6215913595          16.9143608025      Ag        Ag (1)
   38   141           0.6279533855          17.0874803288      Bu        Bu (3)
   39   211           0.6349801900          17.2786894024      Bg        Bg (4)
   40    86           0.6693592865          18.2141921767      Au        Au (2)
   41    15           0.6795519679          18.4915491383      Ag        Ag (1)
   42   212           0.6879267586          18.7194387795      Bg        Bg (4)
   43   213           0.7299370330          19.8625964631      Bg        Bg (4)
   44    16           0.7338738613          19.9697230065      Ag        Ag (1)
   45    87           0.7579694998          20.6253986638      Au        Au (2)
   46    17           0.7591604482          20.6578060184      Ag        Ag (1)
   47   142           0.7763955512          21.1267970130      Bu        Bu (3)
   48    18           0.7821989627          21.2847158704      Ag        Ag (1)
   49   143           0.7862760569          21.3956592438      Bu        Bu (3)
   50   144           0.8434202558          22.9506319492      Bu        Bu (3)
   51   145           0.8876778226          24.1549415670      Bu        Bu (3)
   52   214           0.9202203416          25.0404685274      Bg        Bg (4)
   53    88           0.9267167324          25.2172443072      Au        Au (2)
   54    19           0.9672928535          26.3213766972      Ag        Ag (1)
   55   146           1.0414540679          28.3394059351      Bu        Bu (3)
   56    20           1.0517465281          28.6194780154      Ag        Ag (1)
   57   147           1.1473350806          31.2205747652      Bu        Bu (3)
   58   215           1.1551552395          31.4333721086      Bg        Bg (4)
   59    89           1.1842566707          32.2252623107      Au        Au (2)
   60    21           1.2475580589          33.9477806536      Ag        Ag (1)
   61    90           1.3292333366          36.1702779491      Au        Au (2)
   62    22           1.3326290738          36.2626806581      Ag        Ag (1)
   63    23           1.4129877405          38.4493511460      Ag        Ag (1)
   64   148           1.4274443346          38.8427350715      Bu        Bu (3)
   65   149           1.4917304357          40.5920488156      Bu        Bu (3)
   66    24           1.4935454629          40.6414382152      Ag        Ag (1)
   67    91           1.4968527300          40.7314335307      Au        Au (2)
   68   216           1.5070746969          41.0095873889      Bg        Bg (4)
   69    25           1.5350610042          41.7711335289      Ag        Ag (1)
   70   217           1.5382412812          41.8576732638      Bg        Bg (4)
   71   150           1.5523565029          42.2417679729      Bu        Bu (3)
   72   151           1.5938407028          43.3706104428      Bu        Bu (3)
   73   218           1.6091419165          43.7869776342      Bg        Bg (4)
   74    92           1.6246621902          44.2093057539      Au        Au (2)
   75   152           1.6373611763          44.5548627320      Bu        Bu (3)
   76    26           1.6378067805          44.5669882388      Ag        Ag (1)
   77   153           1.6698083048          45.4377939875      Bu        Bu (3)
   78    93           1.6842253397          45.8301014507      Au        Au (2)
   79   219           1.7258266115          46.9621296081      Bg        Bg (4)
   80    27           1.7466615257          47.5290764463      Ag        Ag (1)
   81    94           1.7513660817          47.6570939227      Au        Au (2)
   82   154           1.7586599957          47.8555714123      Bu        Bu (3)
   83    28           1.7650515803          48.0294952725      Ag        Ag (1)
   84   155           1.7818778043          48.4873601058      Bu        Bu (3)
   85    29           1.8391603579          50.0460976340      Ag        Ag (1)
   86   220           1.8982140955          51.6530315278      Bg        Bg (4)
   87    30           1.8987534063          51.6677069220      Ag        Ag (1)
   88   156           1.8988803218          51.6711604677      Bu        Bu (3)
   89   221           1.9427928491          52.8660810833      Bg        Bg (4)
   90    31           1.9582784179          53.2874648329      Ag        Ag (1)
   91    95           2.0228843525          55.0454816903      Au        Au (2)
   92   157           2.0387403544          55.4769454378      Bu        Bu (3)
   93   222           2.1259409099          57.8497931845      Bg        Bg (4)
   94    96           2.1465829916          58.4114927856      Au        Au (2)
   95    32           2.1576975416          58.7139350644      Ag        Ag (1)
   96   223           2.1684516986          59.0065705547      Bg        Bg (4)
   97   158           2.1711943504          59.0812019052      Bu        Bu (3)
   98    33           2.2321537531          60.7399915842      Ag        Ag (1)
   99   159           2.3144673486          62.9798583899      Bu        Bu (3)
  100    97           2.3306564927          63.4203873960      Au        Au (2)
  101    34           2.4265347662          66.0293678560      Ag        Ag (1)
  102   160           2.4403438666          66.4051325807      Bu        Bu (3)
  103    35           2.4924483950          67.8229688807      Ag        Ag (1)
  104   161           2.6364991700          71.7427897481      Bu        Bu (3)
  105    98           2.6649743689          72.5176393023      Au        Au (2)
  106   224           2.7200978618          74.0176258040      Bg        Bg (4)
  107    36           2.9036745948          79.0130026678      Ag        Ag (1)
  108   225           2.9398186445          79.9965322624      Bg        Bg (4)
  109    99           2.9575910184          80.4801431416      Au        Au (2)
  110   162           2.9711361117          80.8487238679      Bu        Bu (3)
  111    37           3.0253962183          82.3252164327      Ag        Ag (1)
  112   100           3.0507419550          83.0149089916      Au        Au (2)
  113    38           3.0767713824          83.7232057217      Ag        Ag (1)
  114   163           3.0932574124          84.1718134038      Bu        Bu (3)
  115   226           3.0953589693          84.2289996729      Bg        Bg (4)
  116   164           3.1159218604          84.7885443883      Bu        Bu (3)
  117   165           3.1898795876          86.8010364588      Bu        Bu (3)
  118    39           3.4399731456          93.6064281500      Ag        Ag (1)
  119   101           3.5062691495          95.4104341317      Au        Au (2)
  120    40           3.5242116393          95.8986740990      Ag        Ag (1)
  121    41           3.6659456826          99.7554534931      Ag        Ag (1)
  122   166           3.6839595568         100.2456359311      Bu        Bu (3)
  123   227           3.7975737934         103.3372364810      Bg        Bg (4)
  124   102           3.8355464104         104.3705239220      Au        Au (2)
  125    42           3.8403940944         104.5024361103      Ag        Ag (1)
  126   167           3.8467516825         104.6754348761      Bu        Bu (3)
  127   228           3.9617456879         107.8045808465      Bg        Bg (4)
  128   168           3.9766298156         108.2095985532      Bu        Bu (3)
  129    43           3.9965095272         108.7505530053      Ag        Ag (1)
  130   103           4.0213691859         109.4270187097      Au        Au (2)
  131   169           4.0554646050         110.3548022324      Bu        Bu (3)
  132   229           4.0784213733         110.9794876554      Bg        Bg (4)
  133    44           4.0799227208         111.0203413991      Ag        Ag (1)
  134    45           4.1433460563         112.7461780975      Ag        Ag (1)
  135   104           4.1474892399         112.8589198533      Au        Au (2)
  136   230           4.2081332024         114.5091259675      Bg        Bg (4)
  137   170           4.2312294574         115.1376070200      Bu        Bu (3)
  138    46           4.2605669779         115.9359215376      Ag        Ag (1)
  139   171           4.2874294219         116.6668858007      Bu        Bu (3)
  140   231           4.2905286510         116.7512201101      Bg        Bg (4)
  141   105           4.3123864918         117.3460021971      Au        Au (2)
  142   172           4.3245990374         117.6783224582      Bu        Bu (3)
  143   232           4.3615555968         118.6839615636      Bg        Bg (4)
  144    47           4.3812029681         119.2185937193      Ag        Ag (1)
  145   106           4.4254584018         120.4228452930      Au        Au (2)
  146    48           4.4649497036         121.4974582456      Ag        Ag (1)
  147   107           4.4958107879         122.3372310447      Au        Au (2)
  148   173           4.5105237642         122.7375914829      Bu        Bu (3)
  149   174           4.5710229006         124.3838566792      Bu        Bu (3)
  150   175           4.6976774615         127.8303024935      Bu        Bu (3)
  151    49           4.7079711255         128.1104073329      Ag        Ag (1)
  152   233           4.7295034420         128.6963314519      Bg        Bg (4)
  153   176           4.7750187096         129.9348648487      Bu        Bu (3)
  154   108           4.7873442205         130.2702590514      Au        Au (2)
  155   234           4.7908122796         130.3646297363      Bg        Bg (4)
  156   109           4.9504209110         134.7078014007      Au        Au (2)
  157    50           4.9566061055         134.8761090992      Ag        Ag (1)
  158   177           4.9867214399         135.6955890089      Bu        Bu (3)
  159    51           5.1567522483         140.3223625277      Ag        Ag (1)
  160   178           5.2845382743         143.7995970736      Bu        Bu (3)
  161   235           5.3105056724         144.5062058993      Bg        Bg (4)
  162    52           5.3691087446         146.1008765653      Ag        Ag (1)
  163    53           5.4658891593         148.7344055369      Ag        Ag (1)
  164   179           5.5357394573         150.6351287749      Bu        Bu (3)
  165   110           5.5870922827         152.0325101944      Au        Au (2)
  166   236           5.6383396610         153.4270222552      Bg        Bg (4)
  167    54           5.6696136430         154.2780305701      Ag        Ag (1)
  168   180           5.9600543508         162.1813240251      Bu        Bu (3)
  169    55           6.0477598620         164.5679123162      Ag        Ag (1)
  170   181           6.2039611047         168.8183642196      Bu        Bu (3)
  171   237           6.8161038477         185.4756150937      Bg        Bg (4)
  172    56           6.8246033815         185.7068991669      Ag        Ag (1)
  173   111           6.8699210406         186.9400553641      Au        Au (2)
  174   182           6.8735543974         187.0389240290      Bu        Bu (3)
  175   238           7.6692660575         208.6913390872      Bg        Bg (4)
  176   183           7.6862919895         209.1546382503      Bu        Bu (3)
  177   239           7.7583593078         211.1156896786      Bg        Bg (4)
  178   112           7.7732312277         211.5203751949      Au        Au (2)
  179    57           7.8170954234         212.7139806415      Ag        Ag (1)
  180   184           7.8295403427         213.0526241098      Bu        Bu (3)
  181   113           7.8837126030         214.5267262562      Au        Au (2)
  182   185           7.9197299700         215.5068086385      Bu        Bu (3)
  183    58           8.0667039077         219.5061728057      Ag        Ag (1)
  184    59           8.1842481628         222.7047145990      Ag        Ag (1)
  185   114           8.5465180903         232.5625804904      Au        Au (2)
  186    60           8.5615246065         232.9709285558      Ag        Ag (1)
  187   186           8.5726037705         233.2724079354      Bu        Bu (3)
  188   240           8.6568774046         235.5656101045      Bg        Bg (4)
  189   115           8.6979683386         236.6837512637      Au        Au (2)
  190    61           8.7049487792         236.8736987083      Ag        Ag (1)
  191   241           8.7707605499         238.6645280322      Bg        Bg (4)
  192   187           8.7725405228         238.7129635581      Bu        Bu (3)
  193    62           8.8419692553         240.6022154163      Ag        Ag (1)
  194   188           9.2546312918         251.8313203074      Bu        Bu (3)
  195   189           9.7879337523         266.3432180277      Bu        Bu (3)
  196   242           9.8158215129         267.1020825739      Bg        Bg (4)
  197    63           9.8202825386         267.2234732548      Ag        Ag (1)
  198   116           9.8379787342         267.7050112176      Au        Au (2)
  199   190           9.9522595442         270.8147501526      Bu        Bu (3)
  200    64          10.0034794542         272.2085147615      Ag        Ag (1)
  201    65          10.6961781720         291.0578051542      Ag        Ag (1)
  202   117          10.7329613072         292.0587251474      Au        Au (2)
  203   191          10.7786882308         293.3030179980      Bu        Bu (3)
  204    66          10.7804881773         293.3519970318      Ag        Ag (1)
  205   243          10.7879413375         293.5548078313      Bg        Bg (4)
  206   192          10.8236791140         294.5272821685      Bu        Bu (3)
  207   118          10.8706123180         295.8043995770      Au        Au (2)
  208    67          10.8737792584         295.8905764078      Ag        Ag (1)
  209   244          10.8852856400         296.2036809675      Bg        Bg (4)
  210   193          10.9244297268         297.2688457213      Bu        Bu (3)
  211   119          10.9549734782         298.0999834527      Au        Au (2)
  212   245          10.9783841274         298.7370196022      Bg        Bg (4)
  213    68          11.0771237613         301.4238616382      Ag        Ag (1)
  214   194          11.2262250421         305.4811137566      Bu        Bu (3)
  215   120          11.2344386537         305.7046174893      Au        Au (2)
  216   246          11.3337015641         308.4056986019      Bg        Bg (4)
  217    69          11.4657509817         311.9989459308      Ag        Ag (1)
  218   195          11.5222511226         313.5363929287      Bu        Bu (3)
  219   247          11.5397095863         314.0114618768      Bg        Bg (4)
  220   121          11.5666310625         314.7440324893      Au        Au (2)
  221    70          11.6345935962         316.5933870494      Ag        Ag (1)
  222   196          11.6985153315         318.3327858959      Bu        Bu (3)
  223   197          11.7594012956         319.9895772079      Bu        Bu (3)
  224    71          11.9932697212         326.3534606034      Ag        Ag (1)
  225   122          11.9994174678         326.5207492929      Au        Au (2)
  226    72          12.0275732951         327.2869083035      Ag        Ag (1)
  227   248          12.0524534871         327.9639327468      Bg        Bg (4)
  228   123          12.0614597351         328.2090052153      Au        Au (2)
  229   249          12.1035420886         329.3541242716      Bg        Bg (4)
  230   198          12.1500610734         330.6199702029      Bu        Bu (3)
  231   199          12.2110025861         332.2782730696      Bu        Bu (3)
  232    73          12.2156369425         332.4043803178      Ag        Ag (1)
  233   200          12.3449764159         335.9238863175      Bu        Bu (3)
  234    74          12.4920006009         339.9246177838      Ag        Ag (1)
  235   124          12.7339817881         346.5092606456      Au        Au (2)
  236   250          12.7390905240         346.6482764169      Bg        Bg (4)
  237    75          12.7501831932         346.9501232914      Ag        Ag (1)
  238   201          12.8766165583         350.3905500625      Bu        Bu (3)
  239   125          12.8814603782         350.5223571020      Au        Au (2)
  240   251          13.1649459869         358.2363926899      Bg        Bg (4)
  241    76          13.1995759184         359.1787210322      Ag        Ag (1)
  242   202          13.6301940695         370.8964366415      Bu        Bu (3)
  243    77          14.4431724446         393.0187029027      Ag        Ag (1)
  244   203          14.4840553973         394.1311846038      Bu        Bu (3)
  245   204          14.4965041473         394.4699323110      Bu        Bu (3)
  246   252          14.5037681779         394.6675966345      Bg        Bg (4)
  247   126          14.5093494809         394.8194716082      Au        Au (2)
  248    78          14.5907030827         397.0332156577      Ag        Ag (1)
  249    79          16.9097548798         460.1378232337      Ag        Ag (1)
  250   205          16.9199156838         460.4143127663      Bu        Bu (3)
  251    80          43.5582188422        1185.2793931357      Ag        Ag (1)
  252   206          43.7302195462        1189.9597702389      Bu        Bu (3)


  VSCF finished.

 @CHECKOUT-I, Total execution time (CPU/WALL):       42.89/      42.92 seconds.
--executable xvscf finished with status     0 in       42.98 seconds (walltime).
 --invoking executable--
/apps/eb/cfour/2.1-iompi-2018a-serial/bin/xvtran
 @GETMEM-I,  Allocated   38146 MB of main memory.
  Full UHF integral transformation
  Frozen-core orbitals requested within analytic derivative calculation
  Transformation of IIII integrals :
  2 passes through the AO integral file were required.
    11670482 AO integrals were read.
[...]
 Norm of residual vector:     0.00036472
 CPU time [min]: 57210.675                   Wall time [min]:  8553.048
 
 Iteration 12  CI energy:  -151.33773396  Energy decrease:   0.0000E+00
 ======================================================================
 Norm of residual vector:     0.00018984
 CPU time [min]: 58792.175                   Wall time [min]:  8787.217
 
 Iteration 13  CI energy:  -151.33773396  Energy decrease:   0.0000E+00
 ======================================================================
 Norm of residual vector:     0.00010893
 CPU time [min]: 60380.834                   Wall time [min]:  9023.391
 
 Iteration 14  CI energy:  -151.33773396  Energy decrease:   0.0000E+00
 ======================================================================
 Norm of residual vector:     0.00005772
 CPU time [min]: 62069.207                   Wall time [min]:  9271.887
 
 Iteration 15  CI energy:  -151.33773396  Energy decrease:   0.0000E+00
 ======================================================================
 Norm of residual vector:     0.00002866
 CPU time [min]: 63874.400                   Wall time [min]:  9534.927
 
 Iteration 16  CI energy:  -151.33773396  Energy decrease:   0.0000E+00
 ======================================================================
 Norm of residual vector:     0.00001397
 CPU time [min]: 65634.877                   Wall time [min]:  9789.970
 
 Iteration 17  CI energy:  -151.33773396  Energy decrease:   0.0000E+00
 ======================================================================
 Norm of residual vector:     0.00000623
 CPU time [min]: 67346.674                   Wall time [min]: 10040.362
 
 Iteration 18  CI energy:  -151.33773396  Energy decrease:   0.0000E+00
 ======================================================================
 Norm of residual vector:     0.00000301
 CPU time [min]: 68958.227                   Wall time [min]: 10284.768
 
 Iteration 19  CI energy:  -151.33773396  Energy decrease:   0.0000E+00
 ======================================================================
 Norm of residual vector:     0.00000146
 CPU time [min]: 70561.225                   Wall time [min]: 10528.335
 
 Iteration 20  CI energy:  -151.33773396  Energy decrease:   0.0000E+00
 ======================================================================
 Norm of residual vector:     0.00000072
 CPU time [min]: 72175.745                   Wall time [min]: 10775.854
 
 Iteration 21  CI energy:  -151.33773396  Energy decrease:   0.0000E+00
 ======================================================================
 Norm of residual vector:     0.00000034
 CPU time [min]: 73779.699                   Wall time [min]: 11024.430
 
 Iteration 22  CI energy:  -151.33773396  Energy decrease:   0.0000E+00
 ======================================================================
 Norm of residual vector:     0.00000016
 CPU time [min]: 75420.004                   Wall time [min]: 11273.727
 
 Iteration 23  CI energy:  -151.33773396  Energy decrease:   0.0000E+00
 ======================================================================
 Norm of residual vector:     0.00000008
 CPU time [min]: 76978.893                   Wall time [min]: 11514.873
 
 Iteration 24  CI energy:  -151.33773396  Energy decrease:   0.0000E+00
 ======================================================================
 Norm of residual vector:     0.00000003
 CPU time [min]: 78561.310                   Wall time [min]: 11754.492
 
 Iteration 25  CI energy:  -151.33773396  Energy decrease:   0.0000E+00
 ======================================================================
 Norm of residual vector:     0.00000002
 CPU time [min]: 80152.381                   Wall time [min]: 11994.757
 
 Iteration 26  CI energy:  -151.33773396  Energy decrease:   0.0000E+00
 ======================================================================
 Norm of residual vector:     0.00000001
 CPU time [min]: 81734.118                   Wall time [min]: 12235.958
 
 Iteration 27  CI energy:  -151.33773396  Energy decrease:   0.0000E+00
 ======================================================================
 Norm of residual vector:     2.8188E-09
 CPU time [min]: 83361.792                   Wall time [min]: 12483.465
 
 Iteration 28  CI energy:  -151.33773396  Energy decrease:   0.0000E+00
 ======================================================================
 Norm of residual vector:     1.2447E-09
 CPU time [min]: 84979.946                   Wall time [min]: 12728.358
 
 Iteration 29  CI energy:  -151.33773396  Energy decrease:   0.0000E+00
 ======================================================================
 Norm of residual vector:     5.4037E-10
 CPU time [min]: 86595.749                   Wall time [min]: 12974.543
 
 Iteration 30  CI energy:  -151.33773396  Energy decrease:   0.0000E+00
 ======================================================================
 Norm of residual vector:     2.6601E-10
 CPU time [min]: 88202.828                   Wall time [min]: 13219.862
 
 Iteration 31  CI energy:  -151.33773396  Energy decrease:   0.0000E+00
 ======================================================================
 Norm of residual vector:     1.2642E-10
 CPU time [min]: 89795.285                   Wall time [min]: 13464.087
 
 Iteration 32  CI energy:  -151.33773396  Energy decrease:   0.0000E+00
 ======================================================================
 Norm of residual vector:     6.3014E-11
 CPU time [min]: 91352.999                   Wall time [min]: 13705.014
 
 Iteration 33  CI energy:  -151.33773396  Energy decrease:   0.0000E+00
 ======================================================================
 Norm of residual vector:     2.9416E-11
 CPU time [min]: 92780.874                   Wall time [min]: 13934.383
 
 Iteration 34  CI energy:  -151.33773396  Energy decrease:   0.0000E+00
 ======================================================================
 Norm of residual vector:     1.5301E-11
 CPU time [min]: 94214.823                   Wall time [min]: 14165.243
 
 Iteration 35  CI energy:  -151.33773396  Energy decrease:   0.0000E+00
 ======================================================================
 Norm of residual vector:     7.6333E-12
 CPU time [min]: 95669.388                   Wall time [min]: 14400.427
 
 Iteration 36  CI energy:  -151.33773396  Energy decrease:   0.0000E+00
 ======================================================================
 Norm of residual vector:     3.8472E-12
 CPU time [min]: 97126.034                   Wall time [min]: 14635.448
 
 Iteration 37  CI energy:  -151.33773396  Energy decrease:   0.0000E+00
 ======================================================================
 Norm of residual vector:     1.6926E-12
 CPU time [min]: 98563.981                   Wall time [min]: 14868.578
 
 Iteration 38  CI energy:  -151.33773396  Energy decrease:   0.0000E+00
 ======================================================================
 Norm of residual vector:     7.4610E-13
 CPU time [min]: 99926.956                   Wall time [min]: 15076.089
 
 Iteration 39  CI energy:  -151.33773396  Energy decrease:   0.0000E+00
 ======================================================================
 
 Iteration has converged in 39 steps.
 
 Final results:
 Total CCSDT energy [au]:           -151.337733955008
 
 
 
 Calculating reduced density-matrix for root 1...
 
 Total energy from RDM [au]:        -151.337733955008
 
 ************************ 2021-03-01 10:58:41 *************************
                      Normal termination of mrcc.
 **********************************************************************
--executable dmrcc finished with status     0 in   942099.17 seconds (walltime).
 --invoking executable--
/apps/eb/cfour/2.1-iompi-2018a-serial/bin/xdens
 @GETMEM-I,  Allocated   38146 MB of main memory.
  CCSDT density and intermediates are calculated.
  The perturbed orbitals are chosen canonical.
   Frozen core orbitals in analytic derivative calculation
  dropped orbitals                     1                     0
                     1                     0                     0
                     0                     0                     0
 ITERM.tmp does not exsit!
 skip reading
  @S2EXPECT-I, S**2 calculated as expectation value.
  @S2EXPECT-I, Contributions to <S**2> : 
  From one particle density : 
    D(ai)   :   -0.1325621087
    D(ij)   :    0.3404708523
    D(ab)   :   -0.1523747154
  From two particle density : 
    G(abcd) :   -0.0575437416
    G(abci) :    0.0257479694
    G(abij) :   -0.0859934852
    G(aibj) :   -0.0300929289
    G(ijka) :    0.0224866147
    G(ijkl) :   -0.0570686241
              Reference state <S**2>        :    2.1276536405.
              Total one particle correction :    0.0555340281.
              Total two particle correction :   -0.1824641956.
              Expectation value of <S**2>   :    2.0007234730.
  The iterative expansion of D(ai) converged after  20 iterations.
  ----------------------------------------------------------------------
                 Natural orbital occupation numbers
  ----------------------------------------------------------------------
                            Alpha spin
  ----------------------------------------------------------------------
  1.00000  1.00000  0.99180  0.99086  0.98416  0.98304  0.98005  0.98001
  0.97946  0.97744  0.01595  0.01471  0.01262  0.01094  0.00817  0.00794
  0.00587  0.00537  0.00422  0.00422  0.00394  0.00364  0.00364  0.00362
  0.00349  0.00343  0.00302  0.00214  0.00089  0.00075  0.00074  0.00069
  0.00061  0.00060  0.00058  0.00057  0.00049  0.00048  0.00048  0.00045
  0.00043  0.00039  0.00039  0.00038  0.00036  0.00035  0.00034  0.00034
  0.00033  0.00031  0.00031  0.00031  0.00030  0.00030  0.00028  0.00028
  0.00024  0.00023  0.00019  0.00012  0.00010  0.00010  0.00010  0.00009
  0.00008  0.00008  0.00007  0.00007  0.00007  0.00007  0.00006  0.00006
  0.00006  0.00006  0.00005  0.00005  0.00005  0.00005  0.00005  0.00005
  0.00004  0.00004  0.00004  0.00004  0.00004  0.00004  0.00004  0.00004
  0.00003  0.00003  0.00003  0.00003  0.00003  0.00003  0.00003  0.00003
  0.00003  0.00003  0.00003  0.00003  0.00003  0.00003  0.00003  0.00003
  0.00003  0.00002  0.00002  0.00002  0.00002  0.00002  0.00001  0.00001
  0.00001  0.00001  0.00001  0.00001  0.00001  0.00001  0.00001  0.00001
  0.00001  0.00001  0.00001  0.00001  0.00001  0.00001  0.00001  0.00001
  0.00001  0.00001  0.00001  0.00001  0.00001  0.00001  0.00001  0.00001
  0.00001  0.00001  0.00001  0.00001  0.00001  0.00001  0.00001  0.00001
  0.00000  0.00000  0.00000  0.00000  0.00000  0.00000  0.00000  0.00000
  0.00000  0.00000  0.00000  0.00000  0.00000  0.00000  0.00000  0.00000
  0.00000  0.00000  0.00000  0.00000  0.00000  0.00000  0.00000  0.00000
  0.00000  0.00000  0.00000  0.00000  0.00000  0.00000  0.00000  0.00000
  0.00000  0.00000  0.00000  0.00000  0.00000  0.00000  0.00000  0.00000
  0.00000  0.00000  0.00000  0.00000  0.00000  0.00000  0.00000  0.00000
  0.00000  0.00000  0.00000  0.00000  0.00000  0.00000  0.00000  0.00000
  0.00000  0.00000  0.00000  0.00000  0.00000  0.00000  0.00000  0.00000
  0.00000  0.00000  0.00000  0.00000  0.00000  0.00000  0.00000  0.00000
  0.00000  0.00000  0.00000  0.00000  0.00000  0.00000  0.00000  0.00000
  0.00000  0.00000  0.00000  0.00000  0.00000  0.00000  0.00000  0.00000
  0.00000  0.00000  0.00000  0.00000  0.00000  0.00000  0.00000  0.00000
  0.00000  0.00000  0.00000  0.00000  0.00000  0.00000  0.00000  0.00000
  0.00000  0.00000  0.00000  0.00000
  Trace of density matrix :  10.0000000000.
  ----------------------------------------------------------------------
                            Beta spin
  ----------------------------------------------------------------------
  1.00001  1.00001  0.98644  0.98399  0.97891  0.97659  0.84715  0.84341
  0.14512  0.14365  0.01509  0.01374  0.00702  0.00601  0.00582  0.00524
  0.00354  0.00322  0.00322  0.00315  0.00250  0.00249  0.00240  0.00237
  0.00213  0.00202  0.00147  0.00118  0.00074  0.00070  0.00061  0.00057
  0.00046  0.00044  0.00041  0.00041  0.00039  0.00036  0.00031  0.00030
  0.00030  0.00029  0.00029  0.00025  0.00024  0.00023  0.00022  0.00021
  0.00021  0.00020  0.00020  0.00019  0.00018  0.00018  0.00018  0.00017
  0.00016  0.00015  0.00012  0.00011  0.00010  0.00009  0.00008  0.00008
  0.00007  0.00007  0.00007  0.00007  0.00006  0.00006  0.00006  0.00005
  0.00005  0.00005  0.00005  0.00005  0.00005  0.00004  0.00004  0.00004
  0.00004  0.00004  0.00004  0.00004  0.00004  0.00003  0.00003  0.00003
  0.00003  0.00003  0.00003  0.00003  0.00003  0.00003  0.00003  0.00003
  0.00003  0.00003  0.00002  0.00002  0.00002  0.00002  0.00002  0.00002
  0.00002  0.00002  0.00002  0.00002  0.00001  0.00001  0.00001  0.00001
  0.00001  0.00001  0.00001  0.00001  0.00001  0.00001  0.00001  0.00001
  0.00001  0.00001  0.00001  0.00001  0.00001  0.00001  0.00001  0.00001
  0.00001  0.00001  0.00001  0.00001  0.00001  0.00001  0.00001  0.00001
  0.00001  0.00000  0.00000  0.00000  0.00000  0.00000  0.00000  0.00000
  0.00000  0.00000  0.00000  0.00000  0.00000  0.00000  0.00000  0.00000
  0.00000  0.00000  0.00000  0.00000  0.00000  0.00000  0.00000  0.00000
  0.00000  0.00000  0.00000  0.00000  0.00000  0.00000  0.00000  0.00000
  0.00000  0.00000  0.00000  0.00000  0.00000  0.00000  0.00000  0.00000
  0.00000  0.00000  0.00000  0.00000  0.00000  0.00000  0.00000  0.00000
  0.00000  0.00000  0.00000  0.00000  0.00000  0.00000  0.00000  0.00000
  0.00000  0.00000  0.00000  0.00000  0.00000  0.00000  0.00000  0.00000
  0.00000  0.00000  0.00000  0.00000  0.00000  0.00000  0.00000  0.00000
  0.00000  0.00000  0.00000  0.00000  0.00000  0.00000  0.00000  0.00000
  0.00000  0.00000  0.00000  0.00000  0.00000  0.00000  0.00000  0.00000
  0.00000  0.00000  0.00000  0.00000  0.00000  0.00000  0.00000  0.00000
  0.00000  0.00000  0.00000  0.00000  0.00000  0.00000  0.00000  0.00000
  0.00000  0.00000  0.00000  0.00000  0.00000  0.00000  0.00000  0.00000
  0.00000  0.00000  0.00000  0.00000
  Trace of density matrix :   8.0000000000.
  ----------------------------------------------------------------------
  Density calculation successfully completed.
 @CHECKOUT-I, Total execution time (CPU/WALL):     3762.30/    3908.68 seconds.
--executable xdens finished with status     0 in     3913.05 seconds (walltime).
 --invoking executable--
/apps/eb/cfour/2.1-iompi-2018a-serial/bin/xanti
 @GETMEM-I,  Allocated   38146 MB of main memory.
 CCSDT MO gammas will be sorted to Mulliken order.
 @CHECKOUT-I, Total execution time (CPU/WALL):       63.76/      78.96 seconds.
--executable xanti finished with status     0 in       79.39 seconds (walltime).
 --invoking executable--
/apps/eb/cfour/2.1-iompi-2018a-serial/bin/xbcktrn
 @GETMEM-I,  Allocated   38146 MB of main memory.
 CCSDT MO gammas will be transformed to the AO basis.
 @CHECKOUT-I, Total execution time (CPU/WALL):       63.96/      63.97 seconds.
--executable xbcktrn finished with status     0 in       64.04 seconds (walltime).
 --invoking executable--
/apps/eb/cfour/2.1-iompi-2018a-serial/bin/xvdint
 @GETMEM-I,  Allocated   38146 MB of main memory.
 One- and two-electron integral derivatives are calculated
 for UHF-CC/MBPT gradients and dipole moments.
 Spherical gaussians are used.

                     Kinetic energy integral gradient
                     --------------------------------

                         O #1 x     0.0525624773
                         O #1 y    -1.1043381585
                         H #2 x    -0.0160694216
                         H #2 y     1.1283101009


 O #1 1     0.0262812386           -0.5521690793            0.0000000000
 O #1 2    -0.0262812386            0.5521690793            0.0000000000
 H #2 1    -0.0080347108            0.5641550505            0.0000000000
 H #2 2     0.0080347108           -0.5641550505            0.0000000000



                   Nuclear attraction integral gradient
                   ------------------------------------

                         O #1 x   -18.7888775883
                         O #1 y    10.7398495793
                         H #2 x    -1.4627553489
                         H #2 y   -11.4642109430


 O #1 1    -9.3944387941            5.3699247897            0.0000000000
 O #1 2     9.3944387941           -5.3699247897            0.0000000000
 H #2 1    -0.7313776745           -5.7321054715            0.0000000000
 H #2 2     0.7313776745            5.7321054715            0.0000000000



                      Reorthonormalization gradient
                      -----------------------------

                         O #1 x    -0.0285911252
                         O #1 y    -0.3692742910
                         H #2 x     0.0290258138
                         H #2 y     0.3835541809


 O #1 1    -0.0142955626           -0.1846371455            0.0000000000
 O #1 2     0.0142955626            0.1846371455            0.0000000000
 H #2 1     0.0145129069            0.1917770904            0.0000000000
 H #2 2    -0.0145129069           -0.1917770904            0.0000000000



                Electronic contributions to dipole moment
                -----------------------------------------

                     All components zero by symmetry

  Conversion factor used: 1 a.u. =   2.54174691 Debye 


 Evaluation of 1e integral derivatives required    0.38 seconds.
 Evaluation of 2el integral derivatives

                      Two-electron integral gradient
                      ------------------------------

                         O #1 x     8.9145695396
                         O #1 y    -4.4565882983
                         H #2 x     0.8171273073
                         H #2 y     4.7675477300


 O #1 1     4.4572847698           -2.2282941492            0.0000000000
 O #1 2    -4.4572847698            2.2282941492            0.0000000000
 H #2 1     0.4085636537            2.3837738650            0.0000000000
 H #2 2    -0.4085636537           -2.3837738650            0.0000000000


 Evaluation of 2e integral derivatives required  148.01 seconds.

                            Molecular gradient
                            ------------------

                         O #1 x    -0.0015195563
                         O #1 y     0.0048840950
                         H #2 x     0.0001629594
                         H #2 y    -0.0049717762


 O #1 1    -0.0007597781            0.0024420475            0.0000000000
 O #1 2     0.0007597781           -0.0024420475            0.0000000000
 H #2 1     0.0000814797           -0.0024858881            0.0000000000
 H #2 2    -0.0000814797            0.0024858881            0.0000000000


  Molecular gradient norm 0.714E-02

                           Total dipole moment
                           -------------------

                     All components zero by symmetry

  Conversion factor used: 1 a.u. =   2.54174691 Debye 


 @CHECKOUT-I, Total execution time (CPU/WALL):      148.38/     153.69 seconds.
--executable xvdint finished with status     0 in      153.87 seconds (walltime).
 --invoking executable--
/apps/eb/cfour/2.1-iompi-2018a-serial/bin/xjoda
  igrd and ihes are                      0                    -1
  gradient from JOBARC 
  -0.000759778137647   0.002442047495835   0.000000000000000
   0.000759778137647  -0.002442047495835   0.000000000000000
   0.000081479687763  -0.002485888108472   0.000000000000000
  -0.000081479687763   0.002485888108472   0.000000000000000
 
 @CHECKOUT-I, Total execution time (CPU/WALL):        0.17/       0.20 seconds.
--executable xjoda finished with status     0 in        0.24 seconds (walltime).
  The final electronic energy is      -151.337733955007593 a.u. 
  This computation required                       948550.07 seconds (walltime).
