
    -----------------------------------------------------------------------
          Psi4: An Open-Source Ab Initio Electronic Structure Package
                               Psi4 1.3.2 release

                         Git: Rev {HEAD} ecbda83 


    R. M. Parrish, L. A. Burns, D. G. A. Smith, A. C. Simmonett,
    A. E. DePrince III, E. G. Hohenstein, U. Bozkaya, A. Yu. Sokolov,
    R. Di Remigio, R. M. Richard, J. F. Gonthier, A. M. James,
    H. R. McAlexander, A. Kumar, M. Saitow, X. Wang, B. P. Pritchard,
    P. Verma, H. F. Schaefer III, K. Patkowski, R. A. King, E. F. Valeev,
    F. A. Evangelista, J. M. Turney, T. D. Crawford, and C. D. Sherrill,
    J. Chem. Theory Comput. 13(7) pp 3185--3197 (2017).
    (doi: 10.1021/acs.jctc.7b00174)


                         Additional Contributions by
    P. Kraus, H. Kruse, M. H. Lechner, M. C. Schieber, R. A. Shaw,
    A. Alenaizan, R. Galvelis, Z. L. Glick, S. Lehtola, and J. P. Misiewicz

    -----------------------------------------------------------------------


    Psi4 started on: Tuesday, 09 March 2021 03:19PM

    Process ID: 1294
    Host:       c4-4.compute.lan
    PSIDATADIR: /apps/gb/PSI4/1.3.2/share/psi4
    Memory:     500.0 MiB
    Threads:    12
    
  ==> Input File <==

--------------------------------------------------------------------------
memory 4 GB

molecule  {
0 3
O   -1.506400547086   -0.018672862705    0.000000000000 
H   -0.545664812922    0.064595818403    0.000000000000          
H   -1.820883951694    0.891567503749    0.000000000000
O    1.655514633763   -0.041574119156    0.000000000000
}
set {
basis aug-cc-pvtz
reference uhf
e_convergence 10
scf_type pk
freeze_core true
}

set ccenergy {
e_convergence 10
r_convergence 10
}

e = energy('ccsd(t)')

print_out('Stephenergy {}'.format(e))

--------------------------------------------------------------------------

  Memory set to   3.725 GiB by Python driver.

*** tstart() called on c4-4.compute.lan
*** at Tue Mar  9 15:19:02 2021

   => Loading Basis Set <=

    Name: AUG-CC-PVTZ
    Role: ORBITAL
    Keyword: BASIS
    atoms 1, 4 entry O          line   327 file /apps/gb/PSI4/1.3.2/share/psi4/basis/aug-cc-pvtz.gbs 
    atoms 2-3  entry H          line    36 file /apps/gb/PSI4/1.3.2/share/psi4/basis/aug-cc-pvtz.gbs 


         ---------------------------------------------------------
                                   SCF
               by Justin Turney, Rob Parrish, Andy Simmonett
                          and Daniel G. A. Smith
                              UHF Reference
                       12 Threads,   3814 MiB Core
         ---------------------------------------------------------

  ==> Geometry <==

    Molecular point group: cs
    Full point group: Cs

    Geometry (in Angstrom), charge = 0, multiplicity = 3:

       Center              X                  Y                   Z               Mass       
    ------------   -----------------  -----------------  -----------------  -----------------
         O           -1.506400547086    -0.018672862705     0.000000000000    15.994914619570
         H           -0.545664812922     0.064595818403     0.000000000000     1.007825032230
         H           -1.820883951694     0.891567503749     0.000000000000     1.007825032230
         O            1.655514633763    -0.041574119156     0.000000000000    15.994914619570

  Running in cs symmetry.

  Rotational constants: A =     21.79263  B =      0.20107  C =      0.19923 [cm^-1]
  Rotational constants: A = 653326.50699  B =   6027.84816  C =   5972.74130 [MHz]
  Nuclear repulsion =   22.941936922344357

  Charge       = 0
  Multiplicity = 3
  Electrons    = 18
  Nalpha       = 10
  Nbeta        = 8

  ==> Algorithm <==

  SCF Algorithm Type is PK.
  DIIS enabled.
  MOM disabled.
  Fractional occupation disabled.
  Guess Type is SAD.
  Energy threshold   = 1.00e-10
  Density threshold  = 1.00e-08
  Integral threshold = 0.00e+00

  ==> Primary Basis <==

  Basis Set: AUG-CC-PVTZ
    Blend: AUG-CC-PVTZ
    Number of shells: 46
    Number of basis function: 138
    Number of Cartesian functions: 160
    Spherical Harmonics?: true
    Max angular momentum: 3

  ==> Pre-Iterations <==

   -------------------------------------------------------
    Irrep   Nso     Nmo     Nalpha   Nbeta   Ndocc  Nsocc
   -------------------------------------------------------
     A'        92      92       0       0       0       0
     A"        46      46       0       0       0       0
   -------------------------------------------------------
    Total     138     138      10       8       8       2
   -------------------------------------------------------

  ==> Integral Setup <==

  Using in-core PK algorithm.
   Calculation information:
      Number of atoms:                   4
      Number of AO shells:              46
      Number of primitives:             82
      Number of atomic orbitals:       160
      Number of basis functions:       138

      Integral cutoff                 1.00e-12
      Number of threads:                12

  Performing in-core PK
  Using 91996872 doubles for integral storage.
  We computed 905238 shell quartets total.
  Whereas there are 584821 unique shell quartets.
    54.79 percent of shell quartets recomputed by reordering.

  ==> DiskJK: Disk-Based J/K Matrices <==

    J tasked:                  Yes
    K tasked:                  Yes
    wK tasked:                  No
    Memory [MiB]:             2861
    Schwarz Cutoff:          1E-12

    OpenMP threads:             12

  Minimum eigenvalue in the overlap matrix is 2.9824417300E-04.
  Using Symmetric Orthogonalization.

  SCF Guess: Superposition of Atomic Densities via on-the-fly atomic UHF.

  ==> Iterations <==

                        Total Energy        Delta E     RMS |[F,P]|

   @UHF iter SAD:  -149.40105137784678   -1.49401e+02   0.00000e+00 
   @UHF iter   1:  -150.76299121642546   -1.36194e+00   5.05651e-03 DIIS
   @UHF iter   2:  -150.83751502491947   -7.45238e-02   3.28961e-03 DIIS
   @UHF iter   3:  -150.87292524097037   -3.54102e-02   3.94143e-04 DIIS
   @UHF iter   4:  -150.87404341659484   -1.11818e-03   1.31078e-04 DIIS
   @UHF iter   5:  -150.87417071716575   -1.27301e-04   5.11635e-05 DIIS
   @UHF iter   6:  -150.87420471194611   -3.39948e-05   1.51403e-05 DIIS
   @UHF iter   7:  -150.87420818613117   -3.47419e-06   4.69372e-06 DIIS
   @UHF iter   8:  -150.87420872341647   -5.37285e-07   3.25296e-06 DIIS
   @UHF iter   9:  -150.87420910694226   -3.83526e-07   3.10908e-06 DIIS
   @UHF iter  10:  -150.87420959414965   -4.87207e-07   3.06750e-06 DIIS
   @UHF iter  11:  -150.87421152277926   -1.92863e-06   2.94598e-06 DIIS
   @UHF iter  12:  -150.87421761568197   -6.09290e-06   2.59687e-06 DIIS
   @UHF iter  13:  -150.87422373052678   -6.11484e-06   2.17286e-06 DIIS
   @UHF iter  14:  -150.87422876308207   -5.03256e-06   1.97322e-06 DIIS
   @UHF iter  15:  -150.87422952956334   -7.66481e-07   1.18235e-06 DIIS
   @UHF iter  16:  -150.87423211463687   -2.58507e-06   4.07204e-06 DIIS
   @UHF iter  17:  -150.87423217230409   -5.76672e-08   2.02205e-06 DIIS
   @UHF iter  18:  -150.87423220891856   -3.66145e-08   8.99755e-07 DIIS
   @UHF iter  19:  -150.87423221325250   -4.33394e-09   1.73185e-07 DIIS
   @UHF iter  20:  -150.87423221334359   -9.10916e-11   1.52214e-07 DIIS
   @UHF iter  21:  -150.87423221345810   -1.14511e-10   5.76420e-09 DIIS
   @UHF iter  22:  -150.87423221345756    5.40012e-13   1.39736e-08 DIIS
   @UHF iter  23:  -150.87423221345870   -1.13687e-12   4.10002e-09 DIIS
  Energy and wave function converged.


  ==> Post-Iterations <==

   @Spin Contamination Metric:   9.367573742E-03
   @S^2 Expected:                2.000000000E+00
   @S^2 Observed:                2.009367574E+00
   @S   Expected:                1.000000000E+00
   @S   Observed:                1.000000000E+00

    Orbital Energies [Eh]
    ---------------------

    Alpha Occupied:                                                       

       1Ap   -20.734686     2Ap   -20.558622     3Ap    -1.444073  
       4Ap    -1.341926     5Ap    -0.734629     1App   -0.734407  
       6Ap    -0.708611     7Ap    -0.636252     8Ap    -0.574648  
       2App   -0.501385  

    Alpha Virtual:                                                        

       9Ap     0.034445    10Ap     0.053395    11Ap     0.127531  
       3App    0.132024    12Ap     0.148058    13Ap     0.160944  
      14Ap     0.183730     4App    0.186799    15Ap     0.213570  
      16Ap     0.241979    17Ap     0.268820     5App    0.284301  
      18Ap     0.298021     6App    0.322597    19Ap     0.369897  
      20Ap     0.398763    21Ap     0.460194    22Ap     0.563604  
       7App    0.600743    23Ap     0.608671    24Ap     0.637131  
      25Ap     0.672120    26Ap     0.713370     8App    0.714358  
       9App    0.735206    10App    0.748457    27Ap     0.764776  
      28Ap     0.807636    11App    0.825034    29Ap     0.843918  
      30Ap     0.874166    12App    0.886875    31Ap     0.925214  
      13App    0.944389    32Ap     0.945682    33Ap     0.953868  
      14App    0.979633    34Ap     0.982335    35Ap     1.043493  
      36Ap     1.128913    15App    1.168746    37Ap     1.168788  
      38Ap     1.194076    39Ap     1.271106    16App    1.279244  
      40Ap     1.325700    17App    1.527935    41Ap     1.568505  
      18App    1.599479    42Ap     1.700941    43Ap     1.817818  
      44Ap     1.833911    19App    1.976073    45Ap     1.976079  
      46Ap     1.985474    20App    2.011932    47Ap     2.017212  
      21App    2.050828    48Ap     2.061836    22App    2.125943  
      49Ap     2.164305    50Ap     2.176884    23App    2.215395  
      24App    2.298843    51Ap     2.315982    52Ap     2.330173  
      53Ap     2.417331    25App    2.452971    54Ap     2.461171  
      55Ap     2.522554    26App    2.527176    56Ap     2.636554  
      57Ap     2.697138    27App    2.729034    58Ap     2.749548  
      59Ap     2.858722    60Ap     2.936434    28App    2.945809  
      61Ap     3.697375    62Ap     3.899223    29App    4.036907  
      30App    4.059979    63Ap     4.073944    31App    4.175850  
      64Ap     4.202819    65Ap     4.271583    32App    4.296493  
      66Ap     4.389593    33App    4.391804    34App    4.436099  
      67Ap     4.436274    68Ap     4.588230    69Ap     4.780669  
      70Ap     4.962765    35App    5.150802    71Ap     5.176913  
      72Ap     5.299909    73Ap     5.376211    36App    5.523234  
      74Ap     5.686061    75Ap     6.194869    37App    6.310620  
      76Ap     6.310653    38App    6.374656    77Ap     6.377400  
      39App    6.525182    78Ap     6.525281    79Ap     6.562176  
      80Ap     6.641605    40App    6.728582    81Ap     6.812725  
      41App    6.819000    82Ap     6.917722    42App    6.935643  
      83Ap     6.966557    84Ap     7.051122    43App    7.146585  
      44App    7.273429    85Ap     7.316659    45App    7.324558  
      86Ap     7.362734    46App    7.442820    87Ap     7.651123  
      88Ap     7.942073    89Ap     7.963921    90Ap     8.805332  
      91Ap     9.477650    92Ap    16.418911  

    Beta Occupied:                                                        

       1Ap   -20.655899     2Ap   -20.558767     3Ap    -1.342559  
       4Ap    -1.101624     5Ap    -0.707483     6Ap    -0.580933  
       7Ap    -0.541967     1App   -0.501439  

    Beta Virtual:                                                         

       8Ap     0.034322     9Ap     0.047444     2App    0.048048  
      10Ap     0.056236    11Ap     0.144377    12Ap     0.151575  
       3App    0.160851    13Ap     0.179148    14Ap     0.208894  
      15Ap     0.221464     4App    0.226286    16Ap     0.251456  
      17Ap     0.270559     5App    0.284565    18Ap     0.300204  
       6App    0.326608    19Ap     0.373854    20Ap     0.410052  
      21Ap     0.461099    22Ap     0.567002     7App    0.633086  
      23Ap     0.636849    24Ap     0.641814    25Ap     0.675791  
      26Ap     0.713914     8App    0.727251     9App    0.737263  
      10App    0.750151    27Ap     0.784609    28Ap     0.819542  
      29Ap     0.853115    11App    0.868178    30Ap     0.920068  
      12App    0.940046    31Ap     0.944138    13App    0.948803  
      32Ap     0.954217    33Ap     0.971186    34Ap     1.016950  
      14App    1.023089    35Ap     1.047632    36Ap     1.157755  
      15App    1.172240    37Ap     1.175856    38Ap     1.218086  
      39Ap     1.273767    16App    1.290043    40Ap     1.335498  
      17App    1.528728    41Ap     1.572742    18App    1.601109  
      42Ap     1.727726    43Ap     1.823659    44Ap     1.842927  
      45Ap     1.992498    19App    2.014118    46Ap     2.014171  
      20App    2.055372    47Ap     2.066686    21App    2.174591  
      48Ap     2.178038    22App    2.179930    49Ap     2.205037  
      50Ap     2.243315    23App    2.251965    24App    2.301350  
      51Ap     2.324081    52Ap     2.349045    53Ap     2.422838  
      25App    2.455215    54Ap     2.461959    55Ap     2.529252  
      26App    2.536047    56Ap     2.643470    57Ap     2.708518  
      27App    2.730331    58Ap     2.758384    59Ap     2.861701  
      60Ap     2.939991    28App    2.946479    61Ap     3.697933  
      62Ap     3.902167    29App    4.037713    30App    4.146458  
      63Ap     4.180993    64Ap     4.242728    31App    4.259220  
      65Ap     4.291136    32App    4.296677    33App    4.391927  
      66Ap     4.400113    34App    4.437265    67Ap     4.473290  
      68Ap     4.589686    69Ap     4.781951    70Ap     4.965108  
      35App    5.150794    71Ap     5.177390    72Ap     5.300164  
      73Ap     5.377416    36App    5.523329    74Ap     5.686588  
      75Ap     6.195595    37App    6.419540    76Ap     6.419547  
      38App    6.449902    77Ap     6.452640    78Ap     6.533587  
      39App    6.579598    79Ap     6.610012    80Ap     6.687017  
      40App    6.733594    81Ap     6.919583    41App    7.004638  
      82Ap     7.005802    42App    7.044114    83Ap     7.071919  
      84Ap     7.130989    43App    7.149109    44App    7.273778  
      85Ap     7.316950    45App    7.325391    86Ap     7.363262  
      46App    7.443267    87Ap     7.652180    88Ap     7.942703  
      89Ap     7.964165    90Ap     8.807489    91Ap     9.552271  
      92Ap    16.419399  

    Final Occupation by Irrep:
             Ap   App 
    DOCC [     7,    1 ]
    SOCC [     1,    1 ]

  @UHF Final Energy:  -150.87423221345870

   => Energetics <=

    Nuclear Repulsion Energy =             22.9419369223443574
    One-Electron Energy =                -253.6724247000565242
    Two-Electron Energy =                  79.8562555642534733
    Total Energy =                       -150.8742322134586971

  UHF NO Occupations:
  HONO-2 :    7 Ap 1.9970274
  HONO-1 :    2App 1.0000000
  HONO-0 :    8 Ap 1.0000000
  LUNO+0 :    9 Ap 0.0029726
  LUNO+1 :   10 Ap 0.0017119
  LUNO+2 :   11 Ap 0.0000024
  LUNO+3 :   12 Ap 0.0000020


Computation Completed


Properties will be evaluated at   0.000000,   0.000000,   0.000000 [a0]

Properties computed using the SCF density matrix

  Nuclear Dipole Moment: [e a0]
     X:    -2.2179      Y:     0.8961      Z:     0.0000

  Electronic Dipole Moment: [e a0]
     X:     2.7432      Y:    -0.2491      Z:     0.0000

  Dipole Moment: [e a0]
     X:     0.5253      Y:     0.6469      Z:     0.0000     Total:     0.8334

  Dipole Moment: [D]
     X:     1.3353      Y:     1.6444      Z:     0.0000     Total:     2.1182


*** tstop() called on c4-4.compute.lan at Tue Mar  9 15:19:08 2021
Module time:
	user time   =      63.04 seconds =       1.05 minutes
	system time =       1.05 seconds =       0.02 minutes
	total time  =          6 seconds =       0.10 minutes
Total time:
	user time   =      63.04 seconds =       1.05 minutes
	system time =       1.05 seconds =       0.02 minutes
	total time  =          6 seconds =       0.10 minutes
 MINTS: Wrapper to libmints.
   by Justin Turney

   Calculation information:
      Number of threads:                12
      Number of atoms:                   4
      Number of AO shells:              46
      Number of SO shells:              46
      Number of primitives:             82
      Number of atomic orbitals:       160
      Number of basis functions:       138

      Number of irreps:                  2
      Integral cutoff                 0.00e+00
      Number of functions per irrep: [  92   46 ]

 OEINTS: Overlap, kinetic, potential, dipole, and quadrupole integrals
         stored in file 35.

      Computing two-electron integrals...done
      Computed 22930742 non-zero two-electron integrals.
        Stored in file 33.


*** tstart() called on c4-4.compute.lan
*** at Tue Mar  9 15:19:11 2021


	Wfn Parameters:
	--------------------
	Wavefunction         = CCSD_T
	Number of irreps     = 2
	Number of MOs        = 138
	Number of active MOs = 136
	AO-Basis             = NONE
	Semicanonical        = false
	Reference            = UHF
	Print Level          = 1

	IRREP	# MOs	# FZDC	# DOCC	# SOCC	# VIRT	# FZVR
	-----	-----	------	------	------	------	------
	 Ap	   92	    2	    5	    1	    84	    0
	 App	   46	    0	    1	    1	    44	    0
	Transforming integrals...
	IWL integrals will be deleted.
	(OO|OO)...
	Presorting SO-basis two-electron integrals.
	Sorting File: SO Ints (nn|nn) nbuckets = 1
	Transforming the one-electron integrals and constructing Fock matrices
	Starting AA/AB first half-transformation.
	Sorting AA/AB half-transformed integrals.
	Starting BB first half-transformation.
	Sorting BB half-transformed integrals.
	First half integral transformation complete.
	Starting AA second half-transformation.
	Starting AB second half-transformation.
	Starting BB second half-transformation.
	Two-electron integral transformation complete.
	(OO|OV)...
	Starting AA second half-transformation.
	Starting AB second half-transformation.
	Starting BB second half-transformation.
	Two-electron integral transformation complete.
	(OO|VV)...
	Starting AA second half-transformation.
	Starting AB second half-transformation.
	Starting BB second half-transformation.
	Two-electron integral transformation complete.
	(OV|OO)...
	Starting AA/AB first half-transformation.
	Sorting AA/AB half-transformed integrals.
	Starting BB first half-transformation.
	Sorting BB half-transformed integrals.
	First half integral transformation complete.
	Starting AA second half-transformation.
	Starting AB second half-transformation.
	Starting BB second half-transformation.
	Two-electron integral transformation complete.
	(OV|OV)...
	Starting AA second half-transformation.
	Starting AB second half-transformation.
	Starting BB second half-transformation.
	Two-electron integral transformation complete.
	(OV|VV)...
	Starting AA second half-transformation.
	Starting AB second half-transformation.
	Starting BB second half-transformation.
	Two-electron integral transformation complete.
	(VV|OO)...
	Starting AA/AB first half-transformation.
	Sorting AA/AB half-transformed integrals.
	Starting BB first half-transformation.
	Sorting BB half-transformed integrals.
	First half integral transformation complete.
	Starting AA second half-transformation.
	Starting AB second half-transformation.
	Starting BB second half-transformation.
	Two-electron integral transformation complete.
	(VV|OV)...
	Starting AA second half-transformation.
	Starting AB second half-transformation.
	Starting BB second half-transformation.
	Two-electron integral transformation complete.
	(VV|VV)...
	Starting AA second half-transformation.
	Starting AB second half-transformation.
	Starting BB second half-transformation.
	Two-electron integral transformation complete.
	Frozen core energy     =   -125.86767562545016

	Size of irrep 0 of <AB|CD> integrals:     19.643 (MW) /    157.141 (MB)
	Size of irrep 1 of <AB|CD> integrals:     13.660 (MW) /    109.283 (MB)
	Total:                                    33.303 (MW) /    266.424 (MB)

	Size of irrep 0 of <ab|cd> integrals:     20.794 (MW) /    166.349 (MB)
	Size of irrep 1 of <ab|cd> integrals:     14.631 (MW) /    117.045 (MB)
	Total:                                    35.424 (MW) /    283.394 (MB)

	Size of irrep 0 of <Ab|Cd> integrals:     83.174 (MW) /    665.395 (MB)
	Size of irrep 1 of <Ab|Cd> integrals:     56.550 (MW) /    452.403 (MB)
	Total:                                   139.725 (MW) /   1117.798 (MB)

	Size of irrep 0 of <IA|BC> integrals:      5.323 (MW) /     42.586 (MB)
	Size of irrep 1 of <IA|BC> integrals:      3.193 (MW) /     25.547 (MB)
	Total:                                     8.517 (MW) /     68.133 (MB)

	Size of irrep 0 of <ia|bc> integrals:      4.348 (MW) /     34.780 (MB)
	Size of irrep 1 of <ia|bc> integrals:      2.372 (MW) /     18.972 (MB)
	Total:                                     6.719 (MW) /     53.752 (MB)

	Size of irrep 0 of <Ia|Bc> integrals:      5.472 (MW) /     43.776 (MB)
	Size of irrep 1 of <Ia|Bc> integrals:      3.309 (MW) /     26.470 (MB)
	Total:                                     8.781 (MW) /     70.246 (MB)

	Size of irrep 0 of <iA|bC> integrals:      4.232 (MW) /     33.853 (MB)
	Size of irrep 1 of <iA|bC> integrals:      2.286 (MW) /     18.289 (MB)
	Total:                                     6.518 (MW) /     52.142 (MB)

	Size of irrep 0 of tIjAb amplitudes:       0.292 (MW) /      2.335 (MB)
	Size of irrep 1 of tIjAb amplitudes:       0.120 (MW) /      0.963 (MB)
	Total:                                     0.412 (MW) /      3.297 (MB)

	Nuclear Rep. energy          =     22.94193692234436
	SCF energy                   =   -150.87423221345870
	One-electron energy          =    -84.44504924236165
	Two-electron (AA) energy     =     10.14352190605020
	Two-electron (BB) energy     =      5.39619610807525
	Two-electron (AB) energy     =     20.95683771788155
	Two-electron energy          =     36.49655573200700
	Reference energy             =   -150.87423221346046

*** tstop() called on c4-4.compute.lan at Tue Mar  9 15:19:44 2021
Module time:
	user time   =     106.44 seconds =       1.77 minutes
	system time =      18.28 seconds =       0.30 minutes
	total time  =         33 seconds =       0.55 minutes
Total time:
	user time   =     175.66 seconds =       2.93 minutes
	system time =      19.92 seconds =       0.33 minutes
	total time  =         42 seconds =       0.70 minutes
            **************************
            *                        *
            *        CCENERGY        *
            *                        *
            **************************

    Nuclear Rep. energy (wfn)     =   22.941936922344357
    SCF energy          (wfn)     = -150.874232213458697
    Reference energy    (file100) = -150.874232213460459

    Input parameters:
    -----------------
    Wave function   =     CCSD_T
    Reference wfn   =     UHF
    Brueckner       =     No
    Memory (Mbytes) =     4000.0
    Maxiter         =     50
    R_Convergence   =     1.0e-10
    E_Convergence   =     1.0e-10
    Restart         =     Yes
    DIIS            =     Yes
    AO Basis        =     NONE
    ABCD            =     NEW
    Cache Level     =     2
    Cache Type      =     LRU
    Print Level     =     1
    Num. of threads =     12
    # Amps to Print =     10
    Print MP2 Amps? =     No
    Analyze T2 Amps =     No
    Print Pair Ener =     No
    Local CC        =     No
    SCS-MP2         =     False
    SCSN-MP2        =     False
    SCS-CCSD        =     False

MP2 correlation energy -0.4168109437952916
                Solving CC Amplitude Equations
                ------------------------------
  Iter             Energy              RMS        T1Diag      D1Diag    New D1Diag    D2Diag
  ----     ---------------------    ---------   ----------  ----------  ----------   --------
     0        -0.416810943795292    0.000e+00    0.000000    0.000000    0.000000    0.000000
     1        -0.427484631847946    5.700e-02    0.010578    0.000000    0.000000    0.000000
     2        -0.435594781358293    1.693e-02    0.011060    0.000000    0.000000    0.000000
     3        -0.437720456743958    8.604e-03    0.012940    0.000000    0.000000    0.000000
     4        -0.437594979986979    2.540e-03    0.013310    0.000000    0.000000    0.000000
     5        -0.437579779343496    1.333e-03    0.013468    0.000000    0.000000    0.000000
     6        -0.437607195181524    5.186e-04    0.013493    0.000000    0.000000    0.000000
     7        -0.437611994751831    2.721e-04    0.013488    0.000000    0.000000    0.000000
     8        -0.437612563924309    1.005e-04    0.013484    0.000000    0.000000    0.000000
     9        -0.437613982803265    7.326e-05    0.013485    0.000000    0.000000    0.000000
    10        -0.437612363677547    6.160e-05    0.013486    0.000000    0.000000    0.000000
    11        -0.437612516250832    5.816e-05    0.013487    0.000000    0.000000    0.000000
    12        -0.437612283020507    5.631e-05    0.013489    0.000000    0.000000    0.000000
    13        -0.437612284733980    5.529e-05    0.013492    0.000000    0.000000    0.000000
    14        -0.437613323846045    5.380e-05    0.013504    0.000000    0.000000    0.000000
    15        -0.437613685623020    4.854e-05    0.013561    0.000000    0.000000    0.000000
    16        -0.437613450211172    3.372e-05    0.013687    0.000000    0.000000    0.000000
    17        -0.437613118480939    1.661e-05    0.013757    0.000000    0.000000    0.000000
    18        -0.437612971036106    7.806e-06    0.013775    0.000000    0.000000    0.000000
    19        -0.437613221588128    3.456e-06    0.013780    0.000000    0.000000    0.000000
    20        -0.437613337893073    1.541e-06    0.013781    0.000000    0.000000    0.000000
    21        -0.437613345817423    6.208e-07    0.013781    0.000000    0.000000    0.000000
    22        -0.437613347401248    2.958e-07    0.013781    0.000000    0.000000    0.000000
    23        -0.437613346398216    1.532e-07    0.013781    0.000000    0.000000    0.000000
    24        -0.437613345474606    6.207e-08    0.013781    0.000000    0.000000    0.000000
    25        -0.437613346443557    3.227e-08    0.013781    0.000000    0.000000    0.000000
    26        -0.437613346913409    2.408e-08    0.013781    0.000000    0.000000    0.000000
    27        -0.437613347067644    2.241e-08    0.013781    0.000000    0.000000    0.000000
    28        -0.437613347030258    2.175e-08    0.013781    0.000000    0.000000    0.000000
    29        -0.437613346901338    2.126e-08    0.013781    0.000000    0.000000    0.000000
    30        -0.437613346663306    2.061e-08    0.013781    0.000000    0.000000    0.000000
    31        -0.437613346722853    1.861e-08    0.013781    0.000000    0.000000    0.000000
    32        -0.437613347043946    1.155e-08    0.013781    0.000000    0.000000    0.000000
    33        -0.437613347166339    5.282e-09    0.013781    0.000000    0.000000    0.000000
    34        -0.437613347239501    2.174e-09    0.013781    0.000000    0.000000    0.000000
    35        -0.437613347248316    8.159e-10    0.013781    0.000000    0.000000    0.000000
    36        -0.437613347249258    3.374e-10    0.013781    0.000000    0.000000    0.000000
    37        -0.437613347247558    1.434e-10    0.013781    0.000000    0.000000    0.000000
    38        -0.437613347249257    6.748e-11    0.013781    0.000000    0.000000    0.000000

    Iterations converged.


    Largest TIA Amplitudes:
              7  87        -0.0123534829
              7  84        -0.0117263574
              7  85        -0.0094145034
              4   3         0.0091948845
              6  84        -0.0080907736
              4  10         0.0076959830
              5   9        -0.0072522698
              2   2         0.0069890885
              5   2        -0.0069591032
              7  86        -0.0061288161

    Largest Tia Amplitudes:
              5  86        -0.0122379476
              5  89        -0.0119058696
              5  85        -0.0102335540
              4   1        -0.0088211952
              3   3         0.0085311146
              3  11         0.0069891171
              5  88        -0.0064617602
              3  10        -0.0063294866
              5  87        -0.0060305527
              4   4        -0.0053222815

    Largest TIJAB Amplitudes:
      6   2  92  21        -0.0119731213
      6   2 101  38        -0.0100767112
      6   4  92  29         0.0089456629
      4   2  29  21         0.0086214502
      4   2  41  40         0.0085338928
      6   4 103  40         0.0077183565
      6   2 111  54        -0.0076327127
      7   5  90  17        -0.0073568793
      6   2 102  38         0.0073411718
      6   2  88  38         0.0072964600

    Largest Tijab Amplitudes:
      4   1  91  85        -0.0069586519
      4   1 106  85        -0.0063678028
      5   2 100  17        -0.0063431596
      5   3  92  18        -0.0062951880
      4   1  42   1         0.0062357498
      5   2  89  13        -0.0058802059
      5   3  89  11         0.0058428812
      5   2  94  13        -0.0056780887
      5   2  86  13        -0.0056282214
      5   2  92  17         0.0056124056

    Largest TIjAb Amplitudes:
      3   2  12  13        -0.0186458862
      6   1  38  85        -0.0166163199
      2   1  38   1        -0.0157183866
      4   1 103  85        -0.0152213970
      2   1 101  85         0.0152190612
      2   1  88  85        -0.0144825489
      4   4  29  30        -0.0139810104
      6   1 101   1        -0.0137028550
      4   1  41   1        -0.0134617773
      6   1  88   1         0.0130619364

    SCF energy       (wfn)                    = -150.874232213458697
    Reference energy (file100)                = -150.874232213460459

    Opposite-spin MP2 correlation energy      =   -0.314773898425696
    Same-spin MP2 correlation energy          =   -0.102037045369596
    MP2 correlation energy                    =   -0.416810943795292
      * MP2 total energy                      = -151.291043157255757

    Opposite-spin CCSD correlation energy     =   -0.342317176106038
    Same-spin CCSD correlation energy         =   -0.095296171143219
    CCSD correlation energy                   =   -0.437613347249257
      * CCSD total energy                     = -151.311845560709713

            **************************
            *                        *
            *        CCTRIPLES       *
            *                        *
            **************************


    Wave function   =    CCSD_T
    Reference wfn   =      UHF

    Nuclear Rep. energy (wfn)                =   22.941936922344357
    SCF energy          (wfn)                = -150.874232213458697
    Reference energy    (file100)            = -150.874232213460459
    CCSD energy         (file100)            =   -0.437613347249257
    Total CCSD energy   (file100)            = -151.311845560709713

    Number of ijk index combinations:
    Spin Case AAA:                                  56
    Spin Case BBB:                                  20
    Spin Case AAB:                                 168
    Spin Case ABB:                                 120
    AAA (T) energy                             =   -0.000400408318832
    BBB (T) energy                             =   -0.000203216680058
    AAB (T) energy                             =   -0.006757440989598
    ABB (T) energy                             =   -0.005022882625405
    (T) energy                                   =   -0.012383948613893
      * CCSD(T) total energy                     = -151.324229509323601

Stephenergy -151.3242295093236
    Psi4 stopped on: Tuesday, 09 March 2021 03:22PM
    Psi4 wall time for execution: 0:03:19.14

*** Psi4 exiting successfully. Buy a developer a beer!
