
    -----------------------------------------------------------------------
          Psi4: An Open-Source Ab Initio Electronic Structure Package
                               Psi4 1.4a2.dev191 

                         Git: Rev {master} 0ab5346 


    R. M. Parrish, L. A. Burns, D. G. A. Smith, A. C. Simmonett,
    A. E. DePrince III, E. G. Hohenstein, U. Bozkaya, A. Yu. Sokolov,
    R. Di Remigio, R. M. Richard, J. F. Gonthier, A. M. James,
    H. R. McAlexander, A. Kumar, M. Saitow, X. Wang, B. P. Pritchard,
    P. Verma, H. F. Schaefer III, K. Patkowski, R. A. King, E. F. Valeev,
    F. A. Evangelista, J. M. Turney, T. D. Crawford, and C. D. Sherrill,
    J. Chem. Theory Comput. 13(7) pp 3185--3197 (2017).
    (doi: 10.1021/acs.jctc.7b00174)


                         Additional Contributions by
    P. Kraus, H. Kruse, M. H. Lechner, M. C. Schieber, R. A. Shaw,
    A. Alenaizan, R. Galvelis, Z. L. Glick, S. Lehtola, and J. P. Misiewicz

    -----------------------------------------------------------------------


    Psi4 started on: Tuesday, 23 February 2021 01:21PM

    Process ID: 234424
    Host:       c4-20.compute.lan
    PSIDATADIR: /apps/gb/PSI4/1.4.0/share/psi4
    Memory:     500.0 MiB
    Threads:    1
    
  ==> Input File <==

--------------------------------------------------------------------------
memory 10 GB

molecule {
0 2
O 
H 1 R1
R1 = 0.96
}

set {
basis aug-cc-pvqz
e_convergence 10
reference uhf
scf_type pk
g_convergence gau_verytight
}

optimize("scf")

--------------------------------------------------------------------------

  Memory set to   9.313 GiB by Python driver.
gradient() will perform analytic gradient computation.

*** tstart() called on c4-20.compute.lan
*** at Tue Feb 23 13:21:02 2021

   => Loading Basis Set <=

    Name: AUG-CC-PVQZ
    Role: ORBITAL
    Keyword: BASIS
    atoms 1 entry O          line   423 file /apps/gb/PSI4/1.4.0/share/psi4/basis/aug-cc-pvqz.gbs 
    atoms 2 entry H          line    40 file /apps/gb/PSI4/1.4.0/share/psi4/basis/aug-cc-pvqz.gbs 


         ---------------------------------------------------------
                                   SCF
               by Justin Turney, Rob Parrish, Andy Simmonett
                          and Daniel G. A. Smith
                              UHF Reference
                        1 Threads,   9536 MiB Core
         ---------------------------------------------------------

  ==> Geometry <==

    Molecular point group: c2v
    Full point group: C_inf_v

    Geometry (in Angstrom), charge = 0, multiplicity = 2:

       Center              X                  Y                   Z               Mass       
    ------------   -----------------  -----------------  -----------------  -----------------
         O            0.000000000000     0.000000000000    -0.056903302100    15.994914619570
         H            0.000000000000     0.000000000000     0.903096697900     1.007825032230

  Running in c2v symmetry.

  Rotational constants: A = ************  B =     19.29327  C =     19.29327 [cm^-1]
  Rotational constants: A = ************  B = 578397.71805  C = 578397.71805 [MHz]
  Nuclear repulsion =    4.409810088916667

  Charge       = 0
  Multiplicity = 2
  Electrons    = 9
  Nalpha       = 5
  Nbeta        = 4

  ==> Algorithm <==

  SCF Algorithm Type is PK.
  DIIS enabled.
  MOM disabled.
  Fractional occupation disabled.
  Guess Type is SAD.
  Energy threshold   = 1.00e-10
  Density threshold  = 1.00e-08
  Integral threshold = 0.00e+00

  ==> Primary Basis <==

  Basis Set: AUG-CC-PVQZ
    Blend: AUG-CC-PVQZ
    Number of shells: 34
    Number of basis function: 126
    Number of Cartesian functions: 160
    Spherical Harmonics?: true
    Max angular momentum: 4

  ==> Pre-Iterations <==

   -------------------------------------------------------
    Irrep   Nso     Nmo     Nalpha   Nbeta   Ndocc  Nsocc
   -------------------------------------------------------
     A1        50      50       0       0       0       0
     A2        16      16       0       0       0       0
     B1        30      30       0       0       0       0
     B2        30      30       0       0       0       0
   -------------------------------------------------------
    Total     126     126       5       4       4       1
   -------------------------------------------------------

  ==> Integral Setup <==

  Using in-core PK algorithm.
   Calculation information:
      Number of atoms:                   2
      Number of AO shells:              34
      Number of primitives:             54
      Number of atomic orbitals:       160
      Number of basis functions:       126

      Integral cutoff                 1.00e-12
      Number of threads:                 1

  Performing in-core PK
  Using 64024002 doubles for integral storage.
  We computed 177310 shell quartets total.
  Whereas there are 177310 unique shell quartets.

  ==> DiskJK: Disk-Based J/K Matrices <==

    J tasked:                  Yes
    K tasked:                  Yes
    wK tasked:                  No
    Memory [MiB]:             7152
    Schwarz Cutoff:          1E-12

    OpenMP threads:              1

  Minimum eigenvalue in the overlap matrix is 1.3233762529E-04.
  Using Symmetric Orthogonalization.

  SCF Guess: Superposition of Atomic Densities via on-the-fly atomic UHF.

  ==> Iterations <==

                        Total Energy        Delta E     RMS |[F,P]|

   @UHF iter SAD:   -74.66026646028362   -7.46603e+01   0.00000e+00 
   @UHF iter   1:   -75.40296505936931   -7.42699e-01   3.48545e-03 DIIS
   @UHF iter   2:   -75.42355130296676   -2.05862e-02   1.34792e-03 DIIS
   @UHF iter   3:   -75.42635926313031   -2.80796e-03   3.94872e-04 DIIS
   @UHF iter   4:   -75.42681599262384   -4.56729e-04   1.21702e-04 DIIS
   @UHF iter   5:   -75.42689183543641   -7.58428e-05   5.40769e-05 DIIS
   @UHF iter   6:   -75.42691265239188   -2.08170e-05   1.96502e-05 DIIS
   @UHF iter   7:   -75.42691606904660   -3.41665e-06   6.66818e-06 DIIS
   @UHF iter   8:   -75.42691647935504   -4.10308e-07   1.44339e-06 DIIS
   @UHF iter   9:   -75.42691649327492   -1.39199e-08   4.76839e-07 DIIS
   @UHF iter  10:   -75.42691649491867   -1.64376e-09   7.26194e-08 DIIS
   @UHF iter  11:   -75.42691649495308   -3.44045e-11   9.11637e-09 DIIS
  Energy and wave function converged.


  ==> Post-Iterations <==

   @Spin Contamination Metric:   7.018956946E-03
   @S^2 Expected:                7.500000000E-01
   @S^2 Observed:                7.570189569E-01
   @S   Expected:                5.000000000E-01
   @S   Observed:                5.000000000E-01

    Orbital Energies [Eh]
    ---------------------

    Alpha Occupied:                                                       

       1A1   -20.637839     2A1    -1.392180     3A1    -0.685672  
       1B1    -0.659246     1B2    -0.562171  

    Alpha Virtual:                                                        

       4A1     0.027623     5A1     0.113448     2B1     0.130124  
       2B2     0.137480     6A1     0.161737     3B1     0.213107  
       3B2     0.217697     7A1     0.220534     8A1     0.349440  
       9A1     0.471977     1A2     0.473280    10A1     0.507284  
       4B1     0.545419     4B2     0.555899     5B1     0.620877  
       5B2     0.637381    11A1     0.647595     2A2     0.680092  
      12A1     0.680801    13A1     0.707877     6B1     0.735964  
       6B2     0.758257    14A1     0.785447     7B1     1.150235  
       7B2     1.168937    15A1     1.223750     8B1     1.322420  
       8B2     1.322430    16A1     1.472318     3A2     1.475264  
      17A1     1.487691     9B1     1.533241     9B2     1.553802  
      18A1     1.575556     4A2     1.575944    19A1     1.627323  
      20A1     1.647900    10B1     1.686562    10B2     1.702495  
      11B1     1.723281    11B2     1.723629     5A2     1.861617  
      21A1     1.861772    22A1     1.886508    12B1     2.091466  
      12B2     2.116867    23A1     2.427503    13B1     2.595052  
      13B2     2.641624    14B1     2.959182     6A2     2.975611  
      24A1     2.975708    14B2     2.977573    25A1     3.043248  
      26A1     3.601692     7A2     3.648438    27A1     3.648438  
      15B1     3.753310    15B2     3.796127    16B1     3.908845  
      16B2     3.909075    28A1     3.991246    17B1     4.076230  
      17B2     4.076580     8A2     4.135971    29A1     4.138986  
      18B1     4.144003    18B2     4.181861    30A1     4.195877  
       9A2     4.257515    31A1     4.260729    32A1     4.401825  
      19B1     4.746277    19B2     4.788196    10A2     4.808549  
      33A1     4.809062    34A1     5.149822    20B1     5.569042  
      20B2     5.608933    35A1     5.870547    21B1     6.693518  
      21B2     6.693519    22B1     7.731141    22B2     7.744600  
      36A1     7.779341    11A2     7.780242    37A1     7.865305  
      38A1     8.539088    12A2     8.539308    39A1     8.568887  
      23B1     8.682406    23B2     8.698140    40A1     9.786071  
      24B1     9.848890    24B2     9.875854    41A1    10.593287  
      13A2    10.593305    42A1    10.595749    25B1    10.744748  
      25B2    10.744998    26B1    10.819762    26B2    10.891326  
      43A1    11.190750    14A2    11.191483    27B1    11.499774  
      27B2    11.553237    44A1    11.591567    28B1    11.835679  
      28B2    11.835813    45A1    11.998916    15A2    11.999382  
      46A1    12.263227    29B1    12.737310    29B2    12.790673  
      16A2    12.799781    47A1    12.800223    48A1    14.419285  
      30B1    14.564137    30B2    14.615154    49A1    16.894491  
      50A1    43.038500  

    Beta Occupied:                                                        

       1A1   -20.598111     2A1    -1.234384     3A1    -0.641606  
       1B2    -0.514232  

    Beta Virtual:                                                         

       4A1     0.028636     1B1     0.060392     5A1     0.115164  
       2B2     0.139071     6A1     0.164770     2B1     0.177882  
       3B2     0.217734     7A1     0.223448     3B1     0.232090  
       8A1     0.357120     1A2     0.481456     9A1     0.481599  
      10A1     0.509122     4B2     0.554322     4B1     0.555020  
       5B2     0.641105    11A1     0.648169     5B1     0.658959  
       2A2     0.680762    12A1     0.681172    13A1     0.719224  
       6B2     0.764415    14A1     0.795393     6B1     0.804537  
       7B2     1.169024     7B1     1.178654    15A1     1.241104  
       8B2     1.330109     8B1     1.330117    16A1     1.492686  
       3A2     1.520044    17A1     1.521361     9B1     1.547195  
       9B2     1.553607     4A2     1.584747    18A1     1.585287  
      19A1     1.635976    20A1     1.650324    10B2     1.705213  
      10B1     1.709239    11B2     1.724827    11B1     1.724898  
      21A1     1.867672     5A2     1.868014    22A1     1.896403  
      12B2     2.120934    12B1     2.126108    23A1     2.434797  
      13B2     2.655273    13B1     2.684634    14B1     2.971032  
      14B2     2.976160    24A1     2.984039     6A2     2.984072  
      25A1     3.050676    26A1     3.618030     7A2     3.661960  
      27A1     3.661961    15B1     3.804533    15B2     3.806503  
      16B1     3.924831    16B2     3.924836    28A1     4.013188  
      17B1     4.107178    17B2     4.107180     8A2     4.154011  
      29A1     4.154506    18B1     4.175742    18B2     4.185675  
      30A1     4.234390     9A2     4.325471    31A1     4.326153  
      32A1     4.408473    19B1     4.792478    19B2     4.797093  
      10A2     4.840221    33A1     4.840389    34A1     5.164173  
      20B1     5.608298    20B2     5.616403    35A1     5.890736  
      21B1     6.694880    21B2     6.694880    22B1     7.735941  
      22B2     7.743445    36A1     7.784855    11A2     7.785558  
      37A1     7.870101    38A1     8.539594    12A2     8.539917  
      39A1     8.575649    23B1     8.686999    23B2     8.697171  
      40A1     9.794369    24B1     9.868068    24B2     9.879274  
      41A1    10.607071    13A2    10.628774    42A1    10.628774  
      25B1    10.773117    25B2    10.773120    26B1    10.911106  
      26B2    10.911284    43A1    11.212593    14A2    11.212907  
      27B1    11.535088    27B2    11.561345    44A1    11.615109  
      28B1    11.892627    28B2    11.892632    45A1    12.041210  
      15A2    12.041327    46A1    12.282074    29B1    12.785062  
      29B2    12.803241    16A2    12.866664    47A1    12.866721  
      48A1    14.434475    30B1    14.610091    30B2    14.626652  
      49A1    16.907601    50A1    43.062509  

    Final Occupation by Irrep:
             A1    A2    B1    B2 
    DOCC [     3,    0,    0,    1 ]
    SOCC [     0,    0,    1,    0 ]

  @UHF Final Energy:   -75.42691649495308

   => Energetics <=

    Nuclear Repulsion Energy =              4.4098100889166671
    One-Electron Energy =                -112.7480107321898117
    Two-Electron Energy =                  32.9112841483200640
    Total Energy =                        -75.4269164949530762

  UHF NO Occupations:
  HONO-2 :    2 A1 1.9992442
  HONO-1 :    3 A1 1.9978674
  HONO-0 :    1 B1 1.0000000
  LUNO+0 :    4 A1 0.0021326
  LUNO+1 :    5 A1 0.0007558
  LUNO+2 :    2 B2 0.0006227
  LUNO+3 :    6 A1 0.0000012


Computation Completed


Properties will be evaluated at   0.000000,   0.000000,   0.000000 [a0]

Properties computed using the SCF density matrix

  Nuclear Dipole Moment: [e a0]
     X:     0.0000      Y:     0.0000      Z:     0.8464

  Electronic Dipole Moment: [e a0]
     X:     0.0000      Y:     0.0000      Z:    -0.1579

  Dipole Moment: [e a0]
     X:     0.0000      Y:     0.0000      Z:     0.6884     Total:     0.6884

  Dipole Moment: [D]
     X:     0.0000      Y:     0.0000      Z:     1.7499     Total:     1.7499


*** tstop() called on c4-20.compute.lan at Tue Feb 23 13:21:08 2021
Module time:
	user time   =       4.79 seconds =       0.08 minutes
	system time =       0.43 seconds =       0.01 minutes
	total time  =          6 seconds =       0.10 minutes
Total time:
	user time   =       4.79 seconds =       0.08 minutes
	system time =       0.43 seconds =       0.01 minutes
	total time  =          6 seconds =       0.10 minutes

*** tstart() called on c4-20.compute.lan
*** at Tue Feb 23 13:21:08 2021


         ------------------------------------------------------------
                                   SCF GRAD                          
                          Rob Parrish, Justin Turney,                
                       Andy Simmonett, and Alex Sokolov              
         ------------------------------------------------------------

  ==> Geometry <==

    Molecular point group: c2v
    Full point group: C_inf_v

    Geometry (in Angstrom), charge = 0, multiplicity = 2:

       Center              X                  Y                   Z               Mass       
    ------------   -----------------  -----------------  -----------------  -----------------
         O            0.000000000000     0.000000000000    -0.056903302100    15.994914619570
         H            0.000000000000     0.000000000000     0.903096697900     1.007825032230

  Nuclear repulsion =    4.409810088916667

  ==> Basis Set <==

  Basis Set: AUG-CC-PVQZ
    Blend: AUG-CC-PVQZ
    Number of shells: 34
    Number of basis function: 126
    Number of Cartesian functions: 160
    Spherical Harmonics?: true
    Max angular momentum: 4

  ==> DirectJKGrad: Integral-Direct SCF Gradients <==

    Gradient:                    1
    J tasked:                  Yes
    K tasked:                  Yes
    wK tasked:                  No
    Integrals threads:           1
    Schwarz Cutoff:          0E+00


  -Total Gradient:
     Atom            X                  Y                   Z
    ------   -----------------  -----------------  -----------------
       1        0.000000000000     0.000000000000    -0.010308562042
       2        0.000000000000     0.000000000000     0.010308562042


*** tstop() called on c4-20.compute.lan at Tue Feb 23 13:21:27 2021
Module time:
	user time   =      19.12 seconds =       0.32 minutes
	system time =       0.12 seconds =       0.00 minutes
	total time  =         19 seconds =       0.32 minutes
Total time:
	user time   =      23.91 seconds =       0.40 minutes
	system time =       0.55 seconds =       0.01 minutes
	total time  =         25 seconds =       0.42 minutes

			-----------------------------------------
			 OPTKING 2.0: for geometry optimizations 
			  - R.A. King,  Bethel University        
			-----------------------------------------

	Internal coordinates to be generated automatically.
	Detected frag 1 with atoms:  1 2
	---Fragment 1 Bond Connectivity---
	 1 : 2
	 2 : 1

	---Fragment 1 Geometry and Gradient---
	 O           0.0000000000        0.0000000000       -0.1075316566
	 H           0.0000000000        0.0000000000        1.7066054238
	             0.0000000000        0.0000000000       -0.0103085620
	             0.0000000000        0.0000000000        0.0103085620

	Previous optimization step data not found.  Starting new optimization.

	---Fragment 1 Intrafragment Coordinates---
	 - Coordinate -           - BOHR/RAD -       - ANG/DEG -
	 R(1,2)           =         1.814137	       0.960000

	Current energy   :       -75.4269164950

	Generating empirical Hessian (Schlegel '84) for each fragment.
	Taking RFO optimization step.
	Going to follow RFO solution 1.
	Using RFO vector 1.
	Norm of target step-size    0.01858
	Projected energy change by RFO approximation:        -0.0000189475

	Back-transformation to cartesian coordinates...
	Successfully converged to displaced geometry.

	--- Internal Coordinate Step in ANG or DEG, aJ/ANG or AJ/DEG ---
	 ---------------------------------------------------------------------------
	   Coordinate                Previous        Force       Change         New 
	   ----------                --------       ------       ------       ------
	    1 R(1,2)          =      0.960000    -0.084929    -0.009830     0.950170
	 ---------------------------------------------------------------------------
	Successfully symmetrized geometry.

  ==> Convergence Check <==

  Measures of convergence in internal coordinates in au.
  Criteria marked as inactive (o), active & met (*), and active & unmet ( ).
  --------------------------------------------------------------------------------------------- ~
   Step     Total Energy     Delta E     MAX Force     RMS Force      MAX Disp      RMS Disp    ~
  --------------------------------------------------------------------------------------------- ~
    Convergence Criteria             o    2.00e-06 *    1.00e-06 *    6.00e-06 *    4.00e-06 *  ~
  --------------------------------------------------------------------------------------------- ~
      1     -75.42691649   -7.54e+01 o    1.03e-02      1.03e-02      1.86e-02      1.86e-02    ~
  ---------------------------------------------------------------------------------------------

	Writing optimization data to binary file.
	Structure for next step:
	Cartesian Geometry (in Angstrom)
	    O     0.0000000000   0.0000000000  -0.0519881775
	    H     0.0000000000   0.0000000000   0.8981815700
			--------------------------
			 OPTKING Finished Execution 
			--------------------------

    Structure for next step:
    Molecular point group: c2v
    Full point group: C_inf_v

    Geometry (in Angstrom), charge = 0, multiplicity = 2:

    O       
    H             1          R1

    R1        =    0.9501697513

gradient() will perform analytic gradient computation.

*** tstart() called on c4-20.compute.lan
*** at Tue Feb 23 13:21:27 2021

   => Loading Basis Set <=

    Name: AUG-CC-PVQZ
    Role: ORBITAL
    Keyword: BASIS
    atoms 1 entry O          line   423 file /apps/gb/PSI4/1.4.0/share/psi4/basis/aug-cc-pvqz.gbs 
    atoms 2 entry H          line    40 file /apps/gb/PSI4/1.4.0/share/psi4/basis/aug-cc-pvqz.gbs 


         ---------------------------------------------------------
                                   SCF
               by Justin Turney, Rob Parrish, Andy Simmonett
                          and Daniel G. A. Smith
                              UHF Reference
                        1 Threads,   9536 MiB Core
         ---------------------------------------------------------

  ==> Geometry <==

    Molecular point group: c2v
    Full point group: C_inf_v

    Geometry (in Angstrom), charge = 0, multiplicity = 2:

       Center              X                  Y                   Z               Mass       
    ------------   -----------------  -----------------  -----------------  -----------------
         O            0.000000000000     0.000000000000    -0.056320621252    15.994914619570
         H            0.000000000000     0.000000000000     0.893849129999     1.007825032230

  Running in c2v symmetry.

  Rotational constants: A = ************  B =     19.69454  C =     19.69454 [cm^-1]
  Rotational constants: A = ************  B = 590427.57993  C = 590427.57993 [MHz]
  Nuclear repulsion =    4.455433021085240

  Charge       = 0
  Multiplicity = 2
  Electrons    = 9
  Nalpha       = 5
  Nbeta        = 4

  ==> Algorithm <==

  SCF Algorithm Type is PK.
  DIIS enabled.
  MOM disabled.
  Fractional occupation disabled.
  Guess Type is READ.
  Energy threshold   = 1.00e-10
  Density threshold  = 1.00e-08
  Integral threshold = 0.00e+00

  ==> Primary Basis <==

  Basis Set: AUG-CC-PVQZ
    Blend: AUG-CC-PVQZ
    Number of shells: 34
    Number of basis function: 126
    Number of Cartesian functions: 160
    Spherical Harmonics?: true
    Max angular momentum: 4

   => Loading Basis Set <=

    Name: AUG-CC-PVQZ
    Role: ORBITAL
    Keyword: BASIS
    atoms 1 entry O          line   423 file /apps/gb/PSI4/1.4.0/share/psi4/basis/aug-cc-pvqz.gbs 
    atoms 2 entry H          line    40 file /apps/gb/PSI4/1.4.0/share/psi4/basis/aug-cc-pvqz.gbs 

  Reading orbitals from file 180, no projection.

  ==> Pre-Iterations <==

   -------------------------------------------------------
    Irrep   Nso     Nmo     Nalpha   Nbeta   Ndocc  Nsocc
   -------------------------------------------------------
     A1        50      50       0       0       0       0
     A2        16      16       0       0       0       0
     B1        30      30       0       0       0       0
     B2        30      30       0       0       0       0
   -------------------------------------------------------
    Total     126     126       5       4       4       1
   -------------------------------------------------------

  ==> Integral Setup <==

  Using in-core PK algorithm.
   Calculation information:
      Number of atoms:                   2
      Number of AO shells:              34
      Number of primitives:             54
      Number of atomic orbitals:       160
      Number of basis functions:       126

      Integral cutoff                 1.00e-12
      Number of threads:                 1

  Performing in-core PK
  Using 64024002 doubles for integral storage.
  We computed 177310 shell quartets total.
  Whereas there are 177310 unique shell quartets.

  ==> DiskJK: Disk-Based J/K Matrices <==

    J tasked:                  Yes
    K tasked:                  Yes
    wK tasked:                  No
    Memory [MiB]:             7152
    Schwarz Cutoff:          1E-12

    OpenMP threads:              1

  Minimum eigenvalue in the overlap matrix is 1.2819205975E-04.
  Using Symmetric Orthogonalization.

  SCF Guess: Orbitals guess was supplied from a previous computation.

  ==> Iterations <==

                        Total Energy        Delta E     RMS |[F,P]|

   @UHF iter   0:   -75.43106369619423   -7.54311e+01   3.48329e-04 
   @UHF iter   1:   -75.42700803422903    4.05566e-03   3.78705e-05 DIIS
   @UHF iter   2:   -75.42701089936060   -2.86513e-06   8.31030e-06 DIIS
   @UHF iter   3:   -75.42701113228009   -2.32919e-07   3.30732e-06 DIIS
   @UHF iter   4:   -75.42701119764398   -6.53639e-08   1.23835e-06 DIIS
   @UHF iter   5:   -75.42701120546833   -7.82435e-09   6.63738e-07 DIIS
   @UHF iter   6:   -75.42701120849452   -3.02619e-09   3.00587e-07 DIIS
   @UHF iter   7:   -75.42701120930499   -8.10473e-10   6.78464e-08 DIIS
   @UHF iter   8:   -75.42701120933924   -3.42482e-11   8.38149e-09 DIIS
  Energy and wave function converged.


  ==> Post-Iterations <==

   @Spin Contamination Metric:   6.899190483E-03
   @S^2 Expected:                7.500000000E-01
   @S^2 Observed:                7.568991905E-01
   @S   Expected:                5.000000000E-01
   @S   Observed:                5.000000000E-01

    Orbital Energies [Eh]
    ---------------------

    Alpha Occupied:                                                       

       1A1   -20.637016     2A1    -1.395171     3A1    -0.688508  
       1B1    -0.659647     1B2    -0.562601  

    Alpha Virtual:                                                        

       4A1     0.027721     5A1     0.113579     2B1     0.129903  
       2B2     0.137226     6A1     0.162053     3B1     0.213464  
       3B2     0.218086     7A1     0.220540     8A1     0.351417  
       9A1     0.471867     1A2     0.473135    10A1     0.508084  
       4B1     0.545949     4B2     0.556486     5B1     0.619865  
       5B2     0.636319    11A1     0.648089     2A2     0.679424  
      12A1     0.680147    13A1     0.708081     6B1     0.735505  
       6B2     0.757695    14A1     0.788256     7B1     1.153593  
       7B2     1.172597    15A1     1.224744     8B1     1.322663  
       8B2     1.322674    16A1     1.473361     3A2     1.475335  
      17A1     1.492190     9B1     1.533152     9B2     1.553535  
      18A1     1.577186     4A2     1.577512    19A1     1.628669  
      20A1     1.647956    10B1     1.684243    10B2     1.700385  
      11B1     1.724753    11B2     1.725038     5A2     1.858046  
      21A1     1.858193    22A1     1.881991    12B1     2.087850  
      12B2     2.113243    23A1     2.438713    13B1     2.604315  
      13B2     2.650954    14B1     2.966692    14B2     2.985295  
      24A1     2.991342     6A2     2.991349    25A1     3.048630  
      26A1     3.601276     7A2     3.648010    27A1     3.648010  
      15B1     3.752132    15B2     3.795220    16B1     3.912991  
      16B2     3.913216    28A1     3.995712    17B1     4.076536  
      17B2     4.076948     8A2     4.133736    29A1     4.136910  
      18B1     4.137027    18B2     4.174766    30A1     4.195281  
       9A2     4.261649    31A1     4.264337    32A1     4.413133  
      19B1     4.757011    19B2     4.798519    10A2     4.816802  
      33A1     4.817339    34A1     5.143085    20B1     5.593692  
      20B2     5.633896    35A1     5.901958    21B1     6.702544  
      21B2     6.702545    22B1     7.733364    22B2     7.746945  
      36A1     7.815188    11A2     7.816166    37A1     7.897419  
      38A1     8.541428    12A2     8.541565    39A1     8.598108  
      23B1     8.675384    23B2     8.691507    40A1     9.820164  
      24B1     9.891903    24B2     9.919118    41A1    10.532980  
      13A2    10.592881    42A1    10.592882    25B1    10.748607  
      25B2    10.748952    26B1    10.813682    26B2    10.885150  
      43A1    11.211645    14A2    11.212371    27B1    11.499825  
      27B2    11.553433    44A1    11.599730    28B1    11.835512  
      28B2    11.835652    15A2    12.002083    45A1    12.002284  
      46A1    12.322214    29B1    12.780664    16A2    12.805809  
      47A1    12.806242    29B2    12.834080    48A1    14.495339  
      30B1    14.646854    30B2    14.697560    49A1    16.959320  
      50A1    43.109588  

    Beta Occupied:                                                        

       1A1   -20.597378     2A1    -1.238043     3A1    -0.644246  
       1B2    -0.514758  

    Beta Virtual:                                                         

       4A1     0.028713     1B1     0.060143     5A1     0.115226  
       2B2     0.138800     6A1     0.165074     2B1     0.177362  
       3B2     0.218151     7A1     0.223423     3B1     0.232550  
       8A1     0.358969     1A2     0.481317     9A1     0.481459  
      10A1     0.510075     4B2     0.554940     4B1     0.555604  
       5B2     0.640064    11A1     0.648656     5B1     0.658092  
       2A2     0.680124    12A1     0.680544    13A1     0.719446  
       6B2     0.763776    14A1     0.798286     6B1     0.803379  
       7B2     1.172850     7B1     1.182932    15A1     1.242172  
       8B2     1.330381     8B1     1.330390    16A1     1.497631  
       3A2     1.519798    17A1     1.521219     9B1     1.546843  
       9B2     1.553288     4A2     1.586745    18A1     1.587355  
      19A1     1.636928    20A1     1.651481    10B2     1.703082  
      10B1     1.706996    11B2     1.726303    11B1     1.726350  
      21A1     1.864058     5A2     1.864416    22A1     1.891774  
      12B2     2.117317    12B1     2.122872    23A1     2.445863  
      13B2     2.664559    13B1     2.693451    14B1     2.978946  
      14B2     2.984023    24A1     2.999908     6A2     2.999946  
      25A1     3.056080    26A1     3.617557     7A2     3.661537  
      27A1     3.661538    15B1     3.804060    15B2     3.805708  
      16B1     3.929271    16B2     3.929276    28A1     4.017506  
      17B1     4.107291    17B2     4.107299     8A2     4.151410  
      29A1     4.151965    18B1     4.168398    18B2     4.178433  
      30A1     4.232863     9A2     4.330677    31A1     4.331275  
      32A1     4.420419    19B1     4.801787    19B2     4.807071  
      10A2     4.847615    33A1     4.847785    34A1     5.157244  
      20B1     5.633684    20B2     5.641533    35A1     5.922207  
      21B1     6.704061    21B2     6.704062    22B1     7.738326  
      22B2     7.745866    36A1     7.820850    11A2     7.821611  
      37A1     7.901978    38A1     8.542232    12A2     8.542438  
      39A1     8.605398    23B1     8.680129    23B2     8.690597  
      40A1     9.828901    24B1     9.911573    24B2     9.922642  
      41A1    10.543833    13A2    10.628333    42A1    10.628333  
      25B1    10.777076    25B2    10.777080    26B1    10.904626  
      26B2    10.904986    43A1    11.233437    14A2    11.233748  
      27B1    11.535122    27B2    11.561533    44A1    11.623623  
      28B1    11.892394    28B2    11.892399    15A2    12.044014  
      45A1    12.044016    46A1    12.340968    29B1    12.828652  
      29B2    12.846629    16A2    12.872454    47A1    12.872511  
      48A1    14.510465    30B1    14.692022    30B2    14.708811  
      49A1    16.972367    50A1    43.133494  

    Final Occupation by Irrep:
             A1    A2    B1    B2 
    DOCC [     3,    0,    0,    1 ]
    SOCC [     0,    0,    1,    0 ]

  @UHF Final Energy:   -75.42701120933924

   => Energetics <=

    Nuclear Repulsion Energy =              4.4554330210852404
    One-Electron Energy =                -112.8275207435821983
    Two-Electron Energy =                  32.9450765131577157
    Total Energy =                        -75.4270112093392413

  UHF NO Occupations:
  HONO-2 :    2 A1 1.9992862
  HONO-1 :    3 A1 1.9978808
  HONO-0 :    1 B1 1.0000000
  LUNO+0 :    4 A1 0.0021192
  LUNO+1 :    5 A1 0.0007138
  LUNO+2 :    2 B2 0.0006181
  LUNO+3 :    6 A1 0.0000012


Computation Completed


Properties will be evaluated at   0.000000,   0.000000,   0.000000 [a0]

Properties computed using the SCF density matrix

  Nuclear Dipole Moment: [e a0]
     X:     0.0000      Y:     0.0000      Z:     0.8377

  Electronic Dipole Moment: [e a0]
     X:     0.0000      Y:     0.0000      Z:    -0.1524

  Dipole Moment: [e a0]
     X:     0.0000      Y:     0.0000      Z:     0.6853     Total:     0.6853

  Dipole Moment: [D]
     X:     0.0000      Y:     0.0000      Z:     1.7419     Total:     1.7419


*** tstop() called on c4-20.compute.lan at Tue Feb 23 13:21:32 2021
Module time:
	user time   =       4.17 seconds =       0.07 minutes
	system time =       0.27 seconds =       0.00 minutes
	total time  =          5 seconds =       0.08 minutes
Total time:
	user time   =      28.10 seconds =       0.47 minutes
	system time =       0.82 seconds =       0.01 minutes
	total time  =         30 seconds =       0.50 minutes

*** tstart() called on c4-20.compute.lan
*** at Tue Feb 23 13:21:32 2021


         ------------------------------------------------------------
                                   SCF GRAD                          
                          Rob Parrish, Justin Turney,                
                       Andy Simmonett, and Alex Sokolov              
         ------------------------------------------------------------

  ==> Geometry <==

    Molecular point group: c2v
    Full point group: C_inf_v

    Geometry (in Angstrom), charge = 0, multiplicity = 2:

       Center              X                  Y                   Z               Mass       
    ------------   -----------------  -----------------  -----------------  -----------------
         O            0.000000000000     0.000000000000    -0.056320621252    15.994914619570
         H            0.000000000000     0.000000000000     0.893849129999     1.007825032230

  Nuclear repulsion =    4.455433021085240

  ==> Basis Set <==

  Basis Set: AUG-CC-PVQZ
    Blend: AUG-CC-PVQZ
    Number of shells: 34
    Number of basis function: 126
    Number of Cartesian functions: 160
    Spherical Harmonics?: true
    Max angular momentum: 4

  ==> DirectJKGrad: Integral-Direct SCF Gradients <==

    Gradient:                    1
    J tasked:                  Yes
    K tasked:                  Yes
    wK tasked:                  No
    Integrals threads:           1
    Schwarz Cutoff:          0E+00


  -Total Gradient:
     Atom            X                  Y                   Z
    ------   -----------------  -----------------  -----------------
       1        0.000000000000     0.000000000000     0.000229127775
       2        0.000000000000     0.000000000000    -0.000229127774


*** tstop() called on c4-20.compute.lan at Tue Feb 23 13:21:51 2021
Module time:
	user time   =      19.62 seconds =       0.33 minutes
	system time =       0.08 seconds =       0.00 minutes
	total time  =         19 seconds =       0.32 minutes
Total time:
	user time   =      47.72 seconds =       0.80 minutes
	system time =       0.90 seconds =       0.02 minutes
	total time  =         49 seconds =       0.82 minutes

			-----------------------------------------
			 OPTKING 2.0: for geometry optimizations 
			  - R.A. King,  Bethel University        
			-----------------------------------------

	Previous internal coordinate definitions found.
	---Fragment 1 Geometry and Gradient---
	 O           0.0000000000        0.0000000000       -0.1064305494
	 H           0.0000000000        0.0000000000        1.6891300532
	             0.0000000000        0.0000000000        0.0002291278
	             0.0000000000        0.0000000000       -0.0002291278

	---Fragment 1 Intrafragment Coordinates---
	 - Coordinate -           - BOHR/RAD -       - ANG/DEG -
	 R(1,2)           =         1.795561	       0.950170

	Current energy   :       -75.4270112093

	Energy change for the previous step:
		Projected    :        -0.0000189475
		Actual       :        -0.0000947144
	Energy ratio indicates good step: Trust radius increased to 1.000e+00.


	Performing BFGS update.
	Previous computed or guess Hessian on step 1.
	Steps to be used in Hessian update: 1
	Taking RFO optimization step.
	Going to follow RFO solution 1.
	Using RFO vector 1.
	Norm of target step-size    0.00040
	Projected energy change by RFO approximation:        -0.0000000110

	Back-transformation to cartesian coordinates...
	Successfully converged to displaced geometry.

	--- Internal Coordinate Step in ANG or DEG, aJ/ANG or AJ/DEG ---
	 ---------------------------------------------------------------------------
	   Coordinate                Previous        Force       Change         New 
	   ----------                --------       ------       ------       ------
	    1 R(1,2)          =      0.950170     0.001888     0.000214     0.950383
	 ---------------------------------------------------------------------------
	Successfully symmetrized geometry.

  ==> Convergence Check <==

  Measures of convergence in internal coordinates in au.
  Criteria marked as inactive (o), active & met (*), and active & unmet ( ).
  ---------------------------------------------------------------------------------------------
   Step     Total Energy     Delta E     MAX Force     RMS Force      MAX Disp      RMS Disp   
  ---------------------------------------------------------------------------------------------
    Convergence Criteria             o    2.00e-06 *    1.00e-06 *    6.00e-06 *    4.00e-06 *
  ---------------------------------------------------------------------------------------------
      2     -75.42701121   -9.47e-05 o    2.29e-04      2.29e-04      4.04e-04      4.04e-04    ~
  ---------------------------------------------------------------------------------------------

	Writing optimization data to binary file.
	Structure for next step:
	Cartesian Geometry (in Angstrom)
	    O     0.0000000000   0.0000000000  -0.0564274937
	    H     0.0000000000   0.0000000000   0.8939559992
			--------------------------
			 OPTKING Finished Execution 
			--------------------------

    Structure for next step:
    Molecular point group: c2v
    Full point group: C_inf_v

    Geometry (in Angstrom), charge = 0, multiplicity = 2:

    O       
    H             1          R1

    R1        =    0.9503834966

gradient() will perform analytic gradient computation.

*** tstart() called on c4-20.compute.lan
*** at Tue Feb 23 13:21:51 2021

   => Loading Basis Set <=

    Name: AUG-CC-PVQZ
    Role: ORBITAL
    Keyword: BASIS
    atoms 1 entry O          line   423 file /apps/gb/PSI4/1.4.0/share/psi4/basis/aug-cc-pvqz.gbs 
    atoms 2 entry H          line    40 file /apps/gb/PSI4/1.4.0/share/psi4/basis/aug-cc-pvqz.gbs 


         ---------------------------------------------------------
                                   SCF
               by Justin Turney, Rob Parrish, Andy Simmonett
                          and Daniel G. A. Smith
                              UHF Reference
                        1 Threads,   9536 MiB Core
         ---------------------------------------------------------

  ==> Geometry <==

    Molecular point group: c2v
    Full point group: C_inf_v

    Geometry (in Angstrom), charge = 0, multiplicity = 2:

       Center              X                  Y                   Z               Mass       
    ------------   -----------------  -----------------  -----------------  -----------------
         O            0.000000000000     0.000000000000    -0.056333290855    15.994914619570
         H            0.000000000000     0.000000000000     0.894050205789     1.007825032230

  Running in c2v symmetry.

  Rotational constants: A = ************  B =     19.68569  C =     19.68569 [cm^-1]
  Rotational constants: A = ************  B = 590162.03032  C = 590162.03032 [MHz]
  Nuclear repulsion =    4.454430974768636

  Charge       = 0
  Multiplicity = 2
  Electrons    = 9
  Nalpha       = 5
  Nbeta        = 4

  ==> Algorithm <==

  SCF Algorithm Type is PK.
  DIIS enabled.
  MOM disabled.
  Fractional occupation disabled.
  Guess Type is READ.
  Energy threshold   = 1.00e-10
  Density threshold  = 1.00e-08
  Integral threshold = 0.00e+00

  ==> Primary Basis <==

  Basis Set: AUG-CC-PVQZ
    Blend: AUG-CC-PVQZ
    Number of shells: 34
    Number of basis function: 126
    Number of Cartesian functions: 160
    Spherical Harmonics?: true
    Max angular momentum: 4

   => Loading Basis Set <=

    Name: AUG-CC-PVQZ
    Role: ORBITAL
    Keyword: BASIS
    atoms 1 entry O          line   423 file /apps/gb/PSI4/1.4.0/share/psi4/basis/aug-cc-pvqz.gbs 
    atoms 2 entry H          line    40 file /apps/gb/PSI4/1.4.0/share/psi4/basis/aug-cc-pvqz.gbs 

  Reading orbitals from file 180, no projection.

  ==> Pre-Iterations <==

   -------------------------------------------------------
    Irrep   Nso     Nmo     Nalpha   Nbeta   Ndocc  Nsocc
   -------------------------------------------------------
     A1        50      50       0       0       0       0
     A2        16      16       0       0       0       0
     B1        30      30       0       0       0       0
     B2        30      30       0       0       0       0
   -------------------------------------------------------
    Total     126     126       5       4       4       1
   -------------------------------------------------------

  ==> Integral Setup <==

  Using in-core PK algorithm.
   Calculation information:
      Number of atoms:                   2
      Number of AO shells:              34
      Number of primitives:             54
      Number of atomic orbitals:       160
      Number of basis functions:       126

      Integral cutoff                 1.00e-12
      Number of threads:                 1

  Performing in-core PK
  Using 64024002 doubles for integral storage.
  We computed 177310 shell quartets total.
  Whereas there are 177310 unique shell quartets.

  ==> DiskJK: Disk-Based J/K Matrices <==

    J tasked:                  Yes
    K tasked:                  Yes
    wK tasked:                  No
    Memory [MiB]:             7152
    Schwarz Cutoff:          1E-12

    OpenMP threads:              1

  Minimum eigenvalue in the overlap matrix is 1.2828150351E-04.
  Using Symmetric Orthogonalization.

  SCF Guess: Orbitals guess was supplied from a previous computation.

  ==> Iterations <==

                        Total Energy        Delta E     RMS |[F,P]|

   @UHF iter   0:   -75.42692260122281   -7.54269e+01   7.72129e-06 
   @UHF iter   1:   -75.42701125256264   -8.86513e-05   8.28131e-07 DIIS
   @UHF iter   2:   -75.42701125392446   -1.36183e-09   1.80498e-07 DIIS
   @UHF iter   3:   -75.42701125403360   -1.09139e-10   7.12558e-08 DIIS
   @UHF iter   4:   -75.42701125406370   -3.00986e-11   2.64500e-08 DIIS
   @UHF iter   5:   -75.42701125406725   -3.55271e-12   1.41208e-08 DIIS
   @UHF iter   6:   -75.42701125406857   -1.32161e-12   6.43245e-09 DIIS
  Energy and wave function converged.


  ==> Post-Iterations <==

   @Spin Contamination Metric:   6.901646292E-03
   @S^2 Expected:                7.500000000E-01
   @S^2 Observed:                7.569016463E-01
   @S   Expected:                5.000000000E-01
   @S   Observed:                5.000000000E-01

    Orbital Energies [Eh]
    ---------------------

    Alpha Occupied:                                                       

       1A1   -20.637034     2A1    -1.395105     3A1    -0.688447  
       1B1    -0.659638     1B2    -0.562591  

    Alpha Virtual:                                                        

       4A1     0.027719     5A1     0.113576     2B1     0.129908  
       2B2     0.137231     6A1     0.162046     3B1     0.213457  
       3B2     0.218077     7A1     0.220540     8A1     0.351375  
       9A1     0.471870     1A2     0.473138    10A1     0.508067  
       4B1     0.545938     4B2     0.556473     5B1     0.619887  
       5B2     0.636342    11A1     0.648079     2A2     0.679439  
      12A1     0.680161    13A1     0.708078     6B1     0.735516  
       6B2     0.757708    14A1     0.788190     7B1     1.153519  
       7B2     1.172517    15A1     1.224723     8B1     1.322658  
       8B2     1.322668    16A1     1.473344     3A2     1.475333  
      17A1     1.492091     9B1     1.533154     9B2     1.553541  
      18A1     1.577150     4A2     1.577478    19A1     1.628643  
      20A1     1.647946    10B1     1.684292    10B2     1.700430  
      11B1     1.724721    11B2     1.725007     5A2     1.858123  
      21A1     1.858271    22A1     1.882088    12B1     2.087935  
      12B2     2.113327    23A1     2.438468    13B1     2.604105  
      13B2     2.650743    14B1     2.966528    14B2     2.985127  
      24A1     2.991002     6A2     2.991005    25A1     3.048510  
      26A1     3.601298     7A2     3.648019    27A1     3.648019  
      15B1     3.752164    15B2     3.795246    16B1     3.912901  
      16B2     3.913126    28A1     3.995613    17B1     4.076530  
      17B2     4.076940     8A2     4.133784    29A1     4.136955  
      18B1     4.137179    18B2     4.174921    30A1     4.195300  
       9A2     4.261560    31A1     4.264258    32A1     4.412874  
      19B1     4.756777    19B2     4.798293    10A2     4.816623  
      33A1     4.817159    34A1     5.143220    20B1     5.593147  
      20B2     5.633344    35A1     5.901268    21B1     6.702345  
      21B2     6.702345    22B1     7.733318    22B2     7.746897  
      36A1     7.814404    11A2     7.815380    37A1     7.896732  
      38A1     8.541376    12A2     8.541514    39A1     8.597472  
      23B1     8.675529    23B2     8.691644    40A1     9.819407  
      24B1     9.890985    24B2     9.918195    41A1    10.534369  
      13A2    10.592891    42A1    10.592891    25B1    10.748522  
      25B2    10.748865    26B1    10.813803    26B2    10.885273  
      43A1    11.211186    14A2    11.211913    27B1    11.499828  
      27B2    11.553433    44A1    11.599557    28B1    11.835516  
      28B2    11.835656    15A2    12.002020    45A1    12.002209  
      46A1    12.320898    29B1    12.779700    16A2    12.805675  
      47A1    12.806108    29B2    12.833115    48A1    14.493659  
      30B1    14.645046    30B2    14.695759    49A1    16.957966  
      50A1    43.107998  

    Beta Occupied:                                                        

       1A1   -20.597394     2A1    -1.237963     3A1    -0.644188  
       1B2    -0.514746  

    Beta Virtual:                                                         

       4A1     0.028711     1B1     0.060149     5A1     0.115224  
       2B2     0.138806     6A1     0.165068     2B1     0.177373  
       3B2     0.218142     7A1     0.223424     3B1     0.232540  
       8A1     0.358929     1A2     0.481320     9A1     0.481463  
      10A1     0.510054     4B2     0.554927     4B1     0.555591  
       5B2     0.640087    11A1     0.648646     5B1     0.658111  
       2A2     0.680138    12A1     0.680557    13A1     0.719444  
       6B2     0.763791    14A1     0.798218     6B1     0.803405  
       7B2     1.172766     7B1     1.182838    15A1     1.242148  
       8B2     1.330375     8B1     1.330384    16A1     1.497529  
       3A2     1.519803    17A1     1.521221     9B1     1.546851  
       9B2     1.553295     4A2     1.586701    18A1     1.587310  
      19A1     1.636917    20A1     1.651440    10B2     1.703126  
      10B1     1.707043    11B2     1.726271    11B1     1.726319  
      21A1     1.864136     5A2     1.864494    22A1     1.891874  
      12B2     2.117402    12B1     2.122948    23A1     2.445621  
      13B2     2.664349    13B1     2.693251    14B1     2.978773  
      14B2     2.983852    24A1     2.999562     6A2     2.999600  
      25A1     3.055960    26A1     3.617581     7A2     3.661546  
      27A1     3.661547    15B1     3.804076    15B2     3.805732  
      16B1     3.929174    16B2     3.929179    28A1     4.017410  
      17B1     4.107288    17B2     4.107296     8A2     4.151467  
      29A1     4.152021    18B1     4.168559    18B2     4.178591  
      30A1     4.232904     9A2     4.330564    31A1     4.331165  
      32A1     4.420145    19B1     4.801583    19B2     4.806852  
      10A2     4.847454    33A1     4.847625    34A1     5.157383  
      20B1     5.633123    20B2     5.640978    35A1     5.921515  
      21B1     6.703858    21B2     6.703858    22B1     7.738277  
      22B2     7.745816    36A1     7.820063    11A2     7.820822  
      37A1     7.901296    38A1     8.542174    12A2     8.542382  
      39A1     8.604749    23B1     8.680271    23B2     8.690733  
      40A1     9.828135    24B1     9.910643    24B2     9.921717  
      41A1    10.545233    13A2    10.628342    42A1    10.628342  
      25B1    10.776988    25B2    10.776992    26B1    10.904756  
      26B2    10.905112    43A1    11.232979    14A2    11.233290  
      27B1    11.535125    27B2    11.561533    44A1    11.623444  
      28B1    11.892400    28B2    11.892404    15A2    12.043951  
      45A1    12.043951    46A1    12.339655    29B1    12.827682  
      29B2    12.845663    16A2    12.872325    47A1    12.872382  
      48A1    14.508786    30B1    14.690231    30B2    14.707015  
      49A1    16.971014    50A1    43.131907  

    Final Occupation by Irrep:
             A1    A2    B1    B2 
    DOCC [     3,    0,    0,    1 ]
    SOCC [     0,    0,    1,    0 ]

  @UHF Final Energy:   -75.42701125406857

   => Energetics <=

    Nuclear Repulsion Energy =              4.4544309747686359
    One-Electron Energy =                -112.8257784517417974
    Two-Electron Energy =                  32.9443362229045889
    Total Energy =                        -75.4270112540685602

  UHF NO Occupations:
  HONO-2 :    2 A1 1.9992853
  HONO-1 :    3 A1 1.9978806
  HONO-0 :    1 B1 1.0000000
  LUNO+0 :    4 A1 0.0021194
  LUNO+1 :    5 A1 0.0007147
  LUNO+2 :    2 B2 0.0006182
  LUNO+3 :    6 A1 0.0000012


Computation Completed


Properties will be evaluated at   0.000000,   0.000000,   0.000000 [a0]

Properties computed using the SCF density matrix

  Nuclear Dipole Moment: [e a0]
     X:     0.0000      Y:     0.0000      Z:     0.8379

  Electronic Dipole Moment: [e a0]
     X:     0.0000      Y:     0.0000      Z:    -0.1525

  Dipole Moment: [e a0]
     X:     0.0000      Y:     0.0000      Z:     0.6854     Total:     0.6854

  Dipole Moment: [D]
     X:     0.0000      Y:     0.0000      Z:     1.7421     Total:     1.7421


*** tstop() called on c4-20.compute.lan at Tue Feb 23 13:21:55 2021
Module time:
	user time   =       3.71 seconds =       0.06 minutes
	system time =       0.27 seconds =       0.00 minutes
	total time  =          4 seconds =       0.07 minutes
Total time:
	user time   =      51.44 seconds =       0.86 minutes
	system time =       1.18 seconds =       0.02 minutes
	total time  =         53 seconds =       0.88 minutes

*** tstart() called on c4-20.compute.lan
*** at Tue Feb 23 13:21:55 2021


         ------------------------------------------------------------
                                   SCF GRAD                          
                          Rob Parrish, Justin Turney,                
                       Andy Simmonett, and Alex Sokolov              
         ------------------------------------------------------------

  ==> Geometry <==

    Molecular point group: c2v
    Full point group: C_inf_v

    Geometry (in Angstrom), charge = 0, multiplicity = 2:

       Center              X                  Y                   Z               Mass       
    ------------   -----------------  -----------------  -----------------  -----------------
         O            0.000000000000     0.000000000000    -0.056333290855    15.994914619570
         H            0.000000000000     0.000000000000     0.894050205789     1.007825032230

  Nuclear repulsion =    4.454430974768636

  ==> Basis Set <==

  Basis Set: AUG-CC-PVQZ
    Blend: AUG-CC-PVQZ
    Number of shells: 34
    Number of basis function: 126
    Number of Cartesian functions: 160
    Spherical Harmonics?: true
    Max angular momentum: 4

  ==> DirectJKGrad: Integral-Direct SCF Gradients <==

    Gradient:                    1
    J tasked:                  Yes
    K tasked:                  Yes
    wK tasked:                  No
    Integrals threads:           1
    Schwarz Cutoff:          0E+00


  -Total Gradient:
     Atom            X                  Y                   Z
    ------   -----------------  -----------------  -----------------
       1        0.000000000000     0.000000000000    -0.000007593781
       2        0.000000000000     0.000000000000     0.000007593781


*** tstop() called on c4-20.compute.lan at Tue Feb 23 13:22:15 2021
Module time:
	user time   =      19.97 seconds =       0.33 minutes
	system time =       0.08 seconds =       0.00 minutes
	total time  =         20 seconds =       0.33 minutes
Total time:
	user time   =      71.41 seconds =       1.19 minutes
	system time =       1.26 seconds =       0.02 minutes
	total time  =         73 seconds =       1.22 minutes

			-----------------------------------------
			 OPTKING 2.0: for geometry optimizations 
			  - R.A. King,  Bethel University        
			-----------------------------------------

	Previous internal coordinate definitions found.
	---Fragment 1 Geometry and Gradient---
	 O           0.0000000000        0.0000000000       -0.1064544915
	 H           0.0000000000        0.0000000000        1.6895100314
	             0.0000000000        0.0000000000       -0.0000075938
	             0.0000000000        0.0000000000        0.0000075938

	---Fragment 1 Intrafragment Coordinates---
	 - Coordinate -           - BOHR/RAD -       - ANG/DEG -
	 R(1,2)           =         1.795965	       0.950383

	Current energy   :       -75.4270112541

	Energy change for the previous step:
		Projected    :        -0.0000000110
		Actual       :        -0.0000000447

	Performing BFGS update.
	Previous computed or guess Hessian on step 1.
	Denominators (dg)(dq) or (dq)(dq) are very small.
	 Skipping Hessian update for step 2.
	Steps to be used in Hessian update: 1
	Taking RFO optimization step.
	Going to follow RFO solution 1.
	Using RFO vector 1.
	Norm of target step-size    0.00001
	Projected energy change by RFO approximation:        -0.0000000000

	Back-transformation to cartesian coordinates...
	Successfully converged to displaced geometry.

	--- Internal Coordinate Step in ANG or DEG, aJ/ANG or AJ/DEG ---
	 ---------------------------------------------------------------------------
	   Coordinate                Previous        Force       Change         New 
	   ----------                --------       ------       ------       ------
	    1 R(1,2)          =      0.950383    -0.000063    -0.000007     0.950376
	 ---------------------------------------------------------------------------
	Successfully symmetrized geometry.

  ==> Convergence Check <==

  Measures of convergence in internal coordinates in au.
  Criteria marked as inactive (o), active & met (*), and active & unmet ( ).
  ---------------------------------------------------------------------------------------------
   Step     Total Energy     Delta E     MAX Force     RMS Force      MAX Disp      RMS Disp   
  ---------------------------------------------------------------------------------------------
    Convergence Criteria             o    2.00e-06 *    1.00e-06 *    6.00e-06 *    4.00e-06 *
  ---------------------------------------------------------------------------------------------
      3     -75.42701125   -4.47e-08 o    7.59e-06      7.59e-06      1.34e-05      1.34e-05    ~
  ---------------------------------------------------------------------------------------------

	Writing optimization data to binary file.
	Structure for next step:
	Cartesian Geometry (in Angstrom)
	    O     0.0000000000   0.0000000000  -0.0563297460
	    H     0.0000000000   0.0000000000   0.8940466577
			--------------------------
			 OPTKING Finished Execution 
			--------------------------

    Structure for next step:
    Molecular point group: c2v
    Full point group: C_inf_v

    Geometry (in Angstrom), charge = 0, multiplicity = 2:

    O       
    H             1          R1

    R1        =    0.9503764074

gradient() will perform analytic gradient computation.

*** tstart() called on c4-20.compute.lan
*** at Tue Feb 23 13:22:15 2021

   => Loading Basis Set <=

    Name: AUG-CC-PVQZ
    Role: ORBITAL
    Keyword: BASIS
    atoms 1 entry O          line   423 file /apps/gb/PSI4/1.4.0/share/psi4/basis/aug-cc-pvqz.gbs 
    atoms 2 entry H          line    40 file /apps/gb/PSI4/1.4.0/share/psi4/basis/aug-cc-pvqz.gbs 


         ---------------------------------------------------------
                                   SCF
               by Justin Turney, Rob Parrish, Andy Simmonett
                          and Daniel G. A. Smith
                              UHF Reference
                        1 Threads,   9536 MiB Core
         ---------------------------------------------------------

  ==> Geometry <==

    Molecular point group: c2v
    Full point group: C_inf_v

    Geometry (in Angstrom), charge = 0, multiplicity = 2:

       Center              X                  Y                   Z               Mass       
    ------------   -----------------  -----------------  -----------------  -----------------
         O            0.000000000000     0.000000000000    -0.056332870648    15.994914619570
         H            0.000000000000     0.000000000000     0.894043536796     1.007825032230

  Running in c2v symmetry.

  Rotational constants: A = ************  B =     19.68598  C =     19.68598 [cm^-1]
  Rotational constants: A = ************  B = 590170.83481  C = 590170.83481 [MHz]
  Nuclear repulsion =    4.454464201974073

  Charge       = 0
  Multiplicity = 2
  Electrons    = 9
  Nalpha       = 5
  Nbeta        = 4

  ==> Algorithm <==

  SCF Algorithm Type is PK.
  DIIS enabled.
  MOM disabled.
  Fractional occupation disabled.
  Guess Type is READ.
  Energy threshold   = 1.00e-10
  Density threshold  = 1.00e-08
  Integral threshold = 0.00e+00

  ==> Primary Basis <==

  Basis Set: AUG-CC-PVQZ
    Blend: AUG-CC-PVQZ
    Number of shells: 34
    Number of basis function: 126
    Number of Cartesian functions: 160
    Spherical Harmonics?: true
    Max angular momentum: 4

   => Loading Basis Set <=

    Name: AUG-CC-PVQZ
    Role: ORBITAL
    Keyword: BASIS
    atoms 1 entry O          line   423 file /apps/gb/PSI4/1.4.0/share/psi4/basis/aug-cc-pvqz.gbs 
    atoms 2 entry H          line    40 file /apps/gb/PSI4/1.4.0/share/psi4/basis/aug-cc-pvqz.gbs 

  Reading orbitals from file 180, no projection.

  ==> Pre-Iterations <==

   -------------------------------------------------------
    Irrep   Nso     Nmo     Nalpha   Nbeta   Ndocc  Nsocc
   -------------------------------------------------------
     A1        50      50       0       0       0       0
     A2        16      16       0       0       0       0
     B1        30      30       0       0       0       0
     B2        30      30       0       0       0       0
   -------------------------------------------------------
    Total     126     126       5       4       4       1
   -------------------------------------------------------

  ==> Integral Setup <==

  Using in-core PK algorithm.
   Calculation information:
      Number of atoms:                   2
      Number of AO shells:              34
      Number of primitives:             54
      Number of atomic orbitals:       160
      Number of basis functions:       126

      Integral cutoff                 1.00e-12
      Number of threads:                 1

  Performing in-core PK
  Using 64024002 doubles for integral storage.
  We computed 177310 shell quartets total.
  Whereas there are 177310 unique shell quartets.

  ==> DiskJK: Disk-Based J/K Matrices <==

    J tasked:                  Yes
    K tasked:                  Yes
    wK tasked:                  No
    Memory [MiB]:             7152
    Schwarz Cutoff:          1E-12

    OpenMP threads:              1

  Minimum eigenvalue in the overlap matrix is 1.2827853647E-04.
  Using Symmetric Orthogonalization.

  SCF Guess: Orbitals guess was supplied from a previous computation.

  ==> Iterations <==

                        Total Energy        Delta E     RMS |[F,P]|

   @UHF iter   0:   -75.42701419404632   -7.54270e+01   2.55994e-07 
   @UHF iter   1:   -75.42701125411635    2.93993e-06   2.74946e-08 DIIS
   @UHF iter   2:   -75.42701125411784   -1.49214e-12   5.95350e-09 DIIS
  Energy and wave function converged.


  ==> Post-Iterations <==

   @Spin Contamination Metric:   6.901598349E-03
   @S^2 Expected:                7.500000000E-01
   @S^2 Observed:                7.569015983E-01
   @S   Expected:                5.000000000E-01
   @S   Observed:                5.000000000E-01

    Orbital Energies [Eh]
    ---------------------

    Alpha Occupied:                                                       

       1A1   -20.637034     2A1    -1.395108     3A1    -0.688449  
       1B1    -0.659638     1B2    -0.562591  

    Alpha Virtual:                                                        

       4A1     0.027719     5A1     0.113576     2B1     0.129908  
       2B2     0.137231     6A1     0.162046     3B1     0.213457  
       3B2     0.218077     7A1     0.220540     8A1     0.351376  
       9A1     0.471870     1A2     0.473138    10A1     0.508067  
       4B1     0.545938     4B2     0.556473     5B1     0.619886  
       5B2     0.636342    11A1     0.648079     2A2     0.679438  
      12A1     0.680161    13A1     0.708078     6B1     0.735515  
       6B2     0.757708    14A1     0.788193     7B1     1.153522  
       7B2     1.172519    15A1     1.224723     8B1     1.322658  
       8B2     1.322668    16A1     1.473344     3A2     1.475333  
      17A1     1.492094     9B1     1.533154     9B2     1.553541  
      18A1     1.577151     4A2     1.577479    19A1     1.628644  
      20A1     1.647946    10B1     1.684290    10B2     1.700428  
      11B1     1.724722    11B2     1.725009     5A2     1.858121  
      21A1     1.858268    22A1     1.882085    12B1     2.087932  
      12B2     2.113324    23A1     2.438476    13B1     2.604112  
      13B2     2.650750    14B1     2.966533    14B2     2.985132  
      24A1     2.991013     6A2     2.991017    25A1     3.048514  
      26A1     3.601298     7A2     3.648019    27A1     3.648019  
      15B1     3.752163    15B2     3.795245    16B1     3.912904  
      16B2     3.913129    28A1     3.995616    17B1     4.076530  
      17B2     4.076940     8A2     4.133783    29A1     4.136954  
      18B1     4.137174    18B2     4.174916    30A1     4.195300  
       9A2     4.261563    31A1     4.264261    32A1     4.412883  
      19B1     4.756784    19B2     4.798301    10A2     4.816629  
      33A1     4.817165    34A1     5.143215    20B1     5.593165  
      20B2     5.633363    35A1     5.901291    21B1     6.702351  
      21B2     6.702352    22B1     7.733320    22B2     7.746898  
      36A1     7.814430    11A2     7.815406    37A1     7.896754  
      38A1     8.541378    12A2     8.541516    39A1     8.597493  
      23B1     8.675525    23B2     8.691639    40A1     9.819432  
      24B1     9.891016    24B2     9.918226    41A1    10.534323  
      13A2    10.592890    42A1    10.592891    25B1    10.748524  
      25B2    10.748867    26B1    10.813799    26B2    10.885269  
      43A1    11.211202    14A2    11.211928    27B1    11.499827  
      27B2    11.553433    44A1    11.599563    28B1    11.835516  
      28B2    11.835656    15A2    12.002022    45A1    12.002211  
      46A1    12.320941    29B1    12.779732    16A2    12.805680  
      47A1    12.806113    29B2    12.833147    48A1    14.493715  
      30B1    14.645106    30B2    14.695819    49A1    16.958011  
      50A1    43.108051  

    Beta Occupied:                                                        

       1A1   -20.597393     2A1    -1.237965     3A1    -0.644190  
       1B2    -0.514747  

    Beta Virtual:                                                         

       4A1     0.028711     1B1     0.060149     5A1     0.115224  
       2B2     0.138806     6A1     0.165068     2B1     0.177373  
       3B2     0.218142     7A1     0.223424     3B1     0.232541  
       8A1     0.358931     1A2     0.481320     9A1     0.481462  
      10A1     0.510055     4B2     0.554927     4B1     0.555591  
       5B2     0.640086    11A1     0.648646     5B1     0.658110  
       2A2     0.680138    12A1     0.680557    13A1     0.719444  
       6B2     0.763790    14A1     0.798221     6B1     0.803404  
       7B2     1.172769     7B1     1.182842    15A1     1.242149  
       8B2     1.330375     8B1     1.330384    16A1     1.497532  
       3A2     1.519803    17A1     1.521221     9B1     1.546851  
       9B2     1.553295     4A2     1.586703    18A1     1.587311  
      19A1     1.636917    20A1     1.651441    10B2     1.703125  
      10B1     1.707042    11B2     1.726272    11B1     1.726320  
      21A1     1.864134     5A2     1.864491    22A1     1.891870  
      12B2     2.117399    12B1     2.122946    23A1     2.445629  
      13B2     2.664355    13B1     2.693257    14B1     2.978779  
      14B2     2.983857    24A1     2.999573     6A2     2.999611  
      25A1     3.055964    26A1     3.617580     7A2     3.661546  
      27A1     3.661547    15B1     3.804076    15B2     3.805731  
      16B1     3.929177    16B2     3.929182    28A1     4.017413  
      17B1     4.107288    17B2     4.107296     8A2     4.151465  
      29A1     4.152019    18B1     4.168554    18B2     4.178586  
      30A1     4.232903     9A2     4.330568    31A1     4.331168  
      32A1     4.420154    19B1     4.801589    19B2     4.806859  
      10A2     4.847460    33A1     4.847630    34A1     5.157378  
      20B1     5.633142    20B2     5.640996    35A1     5.921538  
      21B1     6.703865    21B2     6.703865    22B1     7.738279  
      22B2     7.745818    36A1     7.820089    11A2     7.820848  
      37A1     7.901319    38A1     8.542176    12A2     8.542384  
      39A1     8.604771    23B1     8.680266    23B2     8.690729  
      40A1     9.828160    24B1     9.910674    24B2     9.921747  
      41A1    10.545187    13A2    10.628342    42A1    10.628342  
      25B1    10.776991    25B2    10.776995    26B1    10.904752  
      26B2    10.905108    43A1    11.232994    14A2    11.233305  
      27B1    11.535125    27B2    11.561533    44A1    11.623450  
      28B1    11.892399    28B2    11.892404    15A2    12.043953  
      45A1    12.043953    46A1    12.339699    29B1    12.827714  
      29B2    12.845695    16A2    12.872329    47A1    12.872386  
      48A1    14.508842    30B1    14.690290    30B2    14.707074  
      49A1    16.971059    50A1    43.131959  

    Final Occupation by Irrep:
             A1    A2    B1    B2 
    DOCC [     3,    0,    0,    1 ]
    SOCC [     0,    0,    1,    0 ]

  @UHF Final Energy:   -75.42701125411784

   => Energetics <=

    Nuclear Repulsion Energy =              4.4544642019740728
    One-Electron Energy =                -112.8258357216958814
    Two-Electron Energy =                  32.9443602656039616
    Total Energy =                        -75.4270112541178435

  UHF NO Occupations:
  HONO-2 :    2 A1 1.9992853
  HONO-1 :    3 A1 1.9978806
  HONO-0 :    1 B1 1.0000000
  LUNO+0 :    4 A1 0.0021194
  LUNO+1 :    5 A1 0.0007147
  LUNO+2 :    2 B2 0.0006182
  LUNO+3 :    6 A1 0.0000012


Computation Completed


Properties will be evaluated at   0.000000,   0.000000,   0.000000 [a0]

Properties computed using the SCF density matrix

  Nuclear Dipole Moment: [e a0]
     X:     0.0000      Y:     0.0000      Z:     0.8379

  Electronic Dipole Moment: [e a0]
     X:     0.0000      Y:     0.0000      Z:    -0.1525

  Dipole Moment: [e a0]
     X:     0.0000      Y:     0.0000      Z:     0.6854     Total:     0.6854

  Dipole Moment: [D]
     X:     0.0000      Y:     0.0000      Z:     1.7421     Total:     1.7421


*** tstop() called on c4-20.compute.lan at Tue Feb 23 13:22:19 2021
Module time:
	user time   =       3.51 seconds =       0.06 minutes
	system time =       0.25 seconds =       0.00 minutes
	total time  =          4 seconds =       0.07 minutes
Total time:
	user time   =      74.94 seconds =       1.25 minutes
	system time =       1.51 seconds =       0.03 minutes
	total time  =         77 seconds =       1.28 minutes

*** tstart() called on c4-20.compute.lan
*** at Tue Feb 23 13:22:19 2021


         ------------------------------------------------------------
                                   SCF GRAD                          
                          Rob Parrish, Justin Turney,                
                       Andy Simmonett, and Alex Sokolov              
         ------------------------------------------------------------

  ==> Geometry <==

    Molecular point group: c2v
    Full point group: C_inf_v

    Geometry (in Angstrom), charge = 0, multiplicity = 2:

       Center              X                  Y                   Z               Mass       
    ------------   -----------------  -----------------  -----------------  -----------------
         O            0.000000000000     0.000000000000    -0.056332870648    15.994914619570
         H            0.000000000000     0.000000000000     0.894043536796     1.007825032230

  Nuclear repulsion =    4.454464201974073

  ==> Basis Set <==

  Basis Set: AUG-CC-PVQZ
    Blend: AUG-CC-PVQZ
    Number of shells: 34
    Number of basis function: 126
    Number of Cartesian functions: 160
    Spherical Harmonics?: true
    Max angular momentum: 4

  ==> DirectJKGrad: Integral-Direct SCF Gradients <==

    Gradient:                    1
    J tasked:                  Yes
    K tasked:                  Yes
    wK tasked:                  No
    Integrals threads:           1
    Schwarz Cutoff:          0E+00


  -Total Gradient:
     Atom            X                  Y                   Z
    ------   -----------------  -----------------  -----------------
       1        0.000000000000     0.000000000000     0.000000302987
       2        0.000000000000     0.000000000000    -0.000000302987


*** tstop() called on c4-20.compute.lan at Tue Feb 23 13:22:39 2021
Module time:
	user time   =      19.46 seconds =       0.32 minutes
	system time =       0.07 seconds =       0.00 minutes
	total time  =         20 seconds =       0.33 minutes
Total time:
	user time   =      94.40 seconds =       1.57 minutes
	system time =       1.58 seconds =       0.03 minutes
	total time  =         97 seconds =       1.62 minutes

			-----------------------------------------
			 OPTKING 2.0: for geometry optimizations 
			  - R.A. King,  Bethel University        
			-----------------------------------------

	Previous internal coordinate definitions found.
	---Fragment 1 Geometry and Gradient---
	 O           0.0000000000        0.0000000000       -0.1064536974
	 H           0.0000000000        0.0000000000        1.6894974288
	             0.0000000000        0.0000000000        0.0000003030
	             0.0000000000        0.0000000000       -0.0000003030

	---Fragment 1 Intrafragment Coordinates---
	 - Coordinate -           - BOHR/RAD -       - ANG/DEG -
	 R(1,2)           =         1.795951	       0.950376

	Current energy   :       -75.4270112541

	Energy change for the previous step:
		Projected    :        -0.0000000000
		Actual       :        -0.0000000000

	Performing BFGS update.
	Previous computed or guess Hessian on step 1.
	Denominators (dg)(dq) or (dq)(dq) are very small.
	 Skipping Hessian update for step 3.
	Denominators (dg)(dq) or (dq)(dq) are very small.
	 Skipping Hessian update for step 2.
	Steps to be used in Hessian update: 1
	Taking RFO optimization step.
	Going to follow RFO solution 1.
	Using RFO vector 1.
	Norm of target step-size    0.00000
	Projected energy change by RFO approximation:        -0.0000000000

	Back-transformation to cartesian coordinates...
	Successfully converged to displaced geometry.

	--- Internal Coordinate Step in ANG or DEG, aJ/ANG or AJ/DEG ---
	 ---------------------------------------------------------------------------
	   Coordinate                Previous        Force       Change         New 
	   ----------                --------       ------       ------       ------
	    1 R(1,2)          =      0.950376     0.000002     0.000000     0.950377
	 ---------------------------------------------------------------------------
	Successfully symmetrized geometry.

  ==> Convergence Check <==

  Measures of convergence in internal coordinates in au.
  Criteria marked as inactive (o), active & met (*), and active & unmet ( ).
  ---------------------------------------------------------------------------------------------
   Step     Total Energy     Delta E     MAX Force     RMS Force      MAX Disp      RMS Disp   
  ---------------------------------------------------------------------------------------------
    Convergence Criteria             o    2.00e-06 *    1.00e-06 *    6.00e-06 *    4.00e-06 *
  ---------------------------------------------------------------------------------------------
      4     -75.42701125   -4.93e-11 o    3.03e-07 *    3.03e-07 *    5.35e-07 *    5.35e-07 *  ~
  ---------------------------------------------------------------------------------------------


  **** Optimization is complete! (in 4 steps) ****

  ==> Optimization Summary <==

  Measures of convergence in internal coordinates in au.
  --------------------------------------------------------------------------------------------------------------- ~
   Step         Total Energy             Delta E       MAX Force       RMS Force        MAX Disp        RMS Disp  ~
  --------------------------------------------------------------------------------------------------------------- ~
      1     -75.426916494953    -75.426916494953      0.01030856      0.01030856      0.01857648      0.01857648  ~
      2     -75.427011209339     -0.000094714386      0.00022913      0.00022913      0.00040392      0.00040392  ~
      3     -75.427011254069     -0.000000044729      0.00000759      0.00000759      0.00001340      0.00001340  ~
      4     -75.427011254118     -0.000000000049      0.00000030      0.00000030      0.00000053      0.00000053  ~
  --------------------------------------------------------------------------------------------------------------- ~

	Writing optimization data to binary file.
	Final energy is    -75.4270112541178
	Final (previous) structure:
	Cartesian Geometry (in Angstrom)
	    O     0.0000000000   0.0000000000  -0.0563328704
	    H     0.0000000000   0.0000000000   0.8940435333
	Saving final (previous) structure.
			--------------------------
			 OPTKING Finished Execution 
			--------------------------

    Final optimized geometry and variables:
    Molecular point group: c2v
    Full point group: C_inf_v

    Geometry (in Angstrom), charge = 0, multiplicity = 2:

    O       
    H             1          R1

    R1        =    0.9503764074

	Removing binary optimization data file.
	Cleaning optimization helper files.

    Psi4 stopped on: Tuesday, 23 February 2021 01:22PM
    Psi4 wall time for execution: 0:01:36.41

*** Psi4 exiting successfully. Buy a developer a beer!
