 --invoking executable--
/apps/eb/cfour/2.1-iompi-2018a-serial/bin/xjoda


   *************************************************************************
         <<<     CCCCCC     CCCCCC   |||     CCCCCC     CCCCCC   >>>
       <<<      CCC        CCC       |||    CCC        CCC         >>>
      <<<      CCC        CCC        |||   CCC        CCC            >>>
    <<<        CCC        CCC        |||   CCC        CCC              >>>
      <<<      CCC        CCC        |||   CCC        CCC            >>>
       <<<      CCC        CCC       |||    CCC        CCC         >>>
         <<<     CCCCCC     CCCCCC   |||     CCCCCC     CCCCCC   >>>
   *************************************************************************

     ****************************************************************
     * CFOUR Coupled-Cluster techniques for Computational Chemistry *
     ****************************************************************
 

   Department of Chemistry                Institut fuer Physikalische Chemie
   University of Florida                  Universitaet Mainz
   Gainesville, FL 32611, USA             D-55099 Mainz, Germany

   Department of Chemistry                Fakultaet fuer Chemie und Biowiss.
   Johns Hopkins University               Karlsruher Institut fuer Technologie
   Baltimore, MD 21218, USA               D-76131 Karlsruhe, Germany

   Department of Chemistry                Department of Physical Chemistry
   Southern Methodist University          Eotvos Lorand University
   Dallas, TX 75275, USA                  H-1053 Budapest, Hungary

 
                       Version 2.1
 
                     b1-8.compute.lan                                  
                     Thu Feb  4 15:59:55 EST 2021                      
                     integer*8 version is running
 
********************************************************************************
*                          Input from ZMAT file                                *
********************************************************************************
CFOUR Optimization JOB                                                          
O   -1.012000837584    0.269900793427    0.000000000000                         
H   -0.470065359311   -0.543103637128    0.000000000000                         
O    1.012000837584   -0.269900793427    0.000000000000                         
H    0.470065359311    0.543103637128    0.000000000000                         
                                                                                
*CFOUR(CALC=CCSDT                                                               
       BASIS=AUG-PVTZ                                                           
       SCF_CONV=12                                                              
       CC_CONV=12                                                               
       SCF_MAXCYC=200                                                           
       CC_MAXCYC=150                                                            
       CC_PROGRAM=MRCC                                                          
       DERIV_LEVEL=1                                                            
       FROZEN_CORE=ON                                                           
       LINEQ_CONV=12                                                            
       OPT_MAXCYC=400                                                           
       REFERENCE=UHF                                                            
       MULTIPLICITY=3                                                           
       COORDINATES=CARTESIAN                                                    
       MEMORY=40                                                                
       MEM_UNIT=GB                                                              
       UNITS=ANGSTROM)                                                          
********************************************************************************
    -------------------------------------------------------------------
                    CFOUR Control Parameters 
    -------------------------------------------------------------------
        External           Internal           Value            Units
          Name               Name
    -------------------------------------------------------------------
       ABCDTYPE             IABCDT         STANDARD    [  0]    ***   
       ANHARMONIC           IANHAR         OFF         [  0]    ***   
       ANH_ALGORIT          IANALG         STANDARD    [  0]    ***   
       ANH_DERIVAT          IANDER         SECOND      [  1]    ***   
       ANH_MODE             ANHMOD         VIBRATION   [  0]    ***   
       ANH_STEPSIZ          ICUBST             50000          x 10-6  
       ANH_SYMMETR          IANHSM         ABELIAN     [  0]    ***   
       AO_LADDERS           IAOLAD         SINGLEPASS  [  1]    ***   
       AV_SCF               IAVSCF         OFF         [  0]    ***   
       BASIS                IBASIS         AUG-PVTZ    [ 34]    ***   
       BOTHVECTORS          BOTHVC         OFF         [  0]    ***   
       BOX_POTENT           IPIAB          OFF         [  0]    ***   
       BREIT                IBREIT         OFF         [  0]    ***   
       BRUCK_CONV           IBRTOL          10D-  4             ***   
       BRUECKNER            IBRKNR         OFF         [  0]    ***   
       BUFFERSIZE           IBUFFS              4096            ***   
       CACHE_RECS           ICHREC             10               ***   
       CALCLEVEL            ICLLVL         CCSDT       [ 18]    ***   
       CCORBOPT             ICCORB         OFF         [  0]  x 0.01  
       CC_CONV              ICCCNV          10D- 12             ***   
       CC_EXPORDER          ICCEOR              5               ***   
       CC_EXTRAPOL          ICCEXT         DIIS        [  1]    ***   
       CC_GUESS             ICCGES         MP2         [  0]    ***   
       CC_MAXCYC            ICCCYC            150              cycles 
       CC_PROGRAM           ICCPRO         MRCC        [  2]    ***   
       CHARGE               ICHRGE              0               ***   
       CHOLESKY             ICHOLE         OFF         [  0]    ***   
       CIS_CONV             ICISTL              5               ***   
       COMM_SIZE            IPSIZE            ***               ***   
       CONSTANT             ICONST         OLD         [  1]    ***   
       CONTINUUM            ICONTU         NONE        [  0]    ***   
       CONTRACTION          ICNTYP         GENERAL     [  1]    ***   
       COORDINATES          ICOORD         CARTESIAN   [  1]    ***   
       CPHF_CONVER          ICPHFT          10D- 16             ***   
       CPHF_MAXCYC          ICPHFC             64              cycles 
       CUBIC                ICUBIC         OFF         [  0]    ***   
       CURVILINEAR          ICURVY         OFF         [  0]    ***   
       DBOC                 IDBOC          OFF         [  0]    ***   
       DCT                  IDCT           OFF         [  0]    ***   
       DERIV_LEV            IDRLVL         FIRST       [  1]    ***   
       DEVMEM_SIZE          IDVMEM         *********           MByte  
       DIAG_MRCC            IEOMST          10D-  0             ***   
       DIFF_TYPE            IDIFTY         RELAXED     [  0]    ***   
       DIRECT               IDIRCT         OFF         [  0]    ***   
       DROPMO               IDRPMO      NONE         
       ECP                  IECP           OFF         [  0]    ***   
       EIGENVECTOR          IVEC                1               ***   
       EL_ANHARM            IELANH         OFF         [  0]    ***   
       EOMFOLLOW            IEOMSR         ENERGY      [  0]    ***   
       EOMIP                IEOMIP         OFF         [  0]    ***   
       EOMLEVEL             HBARFM         SAME        [  0]    ***   
       EOM_MRCC             IMRCCE         NEW         [  1]    ***   
       EOM_NONIT            EOMNON         OFF         [  0]    ***   
       EOM_NSING            IEOMSI          10D-  0             ***   
       EOM_NSTATES          IMRCCD         DAVIDSON    [  0]    ***   
       EOM_NTRIP            IEOMTR          10D-  0             ***   
       EOM_ORDER            IEXORD         ENERGY      [  0]    ***   
       EOM_PROPSTA          IEOMST              0               ***   
       ESTATE_CONV          IEXTOL          10D-  5             ***   
       ESTATE_DIAG          IEXDIG         ITERATIVE   [  0]    ***   
       ESTATE_LOCK          IESLOC         ON          [  1]    ***   
       ESTATE_MAXC          IEXMXC             40               ***   
       ESTATE_PROP          IEXPRP         OFF         [  0]    ***   
       EVAL_HESS            IRECAL              0            # of cyc.
       EXCITATION           IEXCIT              0               ***   
       EXCITE               IEXCIT         NONE        [  0]    ***   
       EXTERN_POT           IEXPOT         OFF         [  0]    ***   
       FCGRADNEW            IFCGNW         OFF         [  0]    ***   
       FC_FIELD             IFINFC              0             x 10-6  
       FD_CALTYPE           IFDCAL         GRADONLY    [  0]    ***   
       FD_PROJECT           IFDPRJ         OFF         [  1]    ***   
       FD_STEPSIZE          IDISFD              0            10-4 bohr
       FD_USEGROUP          IFDGRP         FULL        [  0]    ***   
       FILE_RECSIZ          IFLREC              4096           words  
       FINITE_PERT          IFIPER              0             x 10-6  
       FIXGEOM              IFIXGM         OFF         [  0]    ***   
       FOCK                 IFOCK          AO          [  1]    ***   
       FREQ_ALGORI          IVIALG         STANDARD    [  0]    ***   
       FROZEN_CORE          IFROCO         ON          [  1]    ***   
       GAMMA_ABCD           IGABCD         STORE       [  0]    ***   
       GAMMA_ABCI           IGABCI         STORE       [  0]    ***   
       GENBAS_1             IGNBS1              0               ***   
       GENBAS_2             IGNBS2              0               ***   
       GENBAS_3             IGNBS3              0               ***   
       GENBAS_4             IGNBS4              0               ***   
       GEO_CONV             ICONTL              5              H/bohr 
       GEO_MAXCYC           IOPTCY            400               ***   
       GEO_MAXSTEP          IMXSTP            300            millibohr
       GEO_METHOD           INR            SINGLE_POINT[  5]    ***   
       GIAO                 IGIAO          OFF         [  1]    ***   
       GIMIC                IGIMIC         OFF         [  0]    ***   
       GRID                 IGRID          OFF         [  0]    ***   
       GRID_ALGO            IGALGO         SERIAL      [  0]    ***   
       GUESS                IGUESS         MOREAD      [  0]    ***   
       HBAR                 IHBAR          OFF         [  0]    ***   
       HESS_TYPE            IHESTP         SCF         [  0]    ***   
       HF2_FILE             IHF2Fl         USE         [  1]    ***   
       HFSTABILITY          ISTABL         OFF         [  0]    ***   
       INCORE               INCORE         OFF         [  0]    ***   
       INPUT_MRCC           IMRCC          ON          [  1]    ***   
       INTEGRALS            INTTYP         VMOL        [  1]    ***   
       JODA_PRINT           IJPRNT              0               ***   
       KEYWORD_OUT          IDMPKW         NO          [  0]    ***   
       LINDEP_TOL           ILINDP              8               ***   
       LINEQ_CONV           IZTACN          10D- 12           cycles  
       LINEQ_EXPOR          ILMAXD              5               ***   
       LINEQ_MAXCY          ILMAXC            100               ***   
       LINEQ_TYPE           ILTYPE         DIIS        [  1]    ***   
       LOCK_ORBOCC          ILOCOC         OFF         [  0]    ***   
       MEMORY_SIZE          IMEMSZ         *********           words  
       MEM_UNIT             IMEMU          GB          [  3]    ***   
       MRCC                 IMRCCC         OFF         [  0]    ***   
       MULTIPLICTY          IMULTP              3               ***   
       NACOUPLING           IVCOUP         OFF         [  0]    ***   
       NEGEVAL              IDIE           ABORT       [  0]    ***   
       NEWNORM              INEWNO         OFF         [  0]    ***   
       NON-HF               INONHF         OFF         [  0]    ***   
       NTOP_TAMP            ITOPT2             15               ***   
       NUC_MODEL            INUCMO         POINT       [  0]    ***   
       OCCUPATION           IOCCU   ESTIMATED BY SCF 
       OPEN-SHELL           IOPEN          SPIN-ORBITAL[  0]    ***   
       OPTVIB               IOPTVB         OFF         [  0]    ***   
       ORBITALS             IORBTP         STANDARD    [  0]    ***   
       PARALLEL             IPARAL         ON          [  1]    ***   
       PARA_INT             IPINTS         ON          [  1]    ***   
       PARA_PRINT           IPPRIN              0               ***   
       PERT_ORB             IPTORB         CANONICAL   [  1]    ***   
       POINTS               IGRDFD              0               ***   
       PRINT                IPRNT               0               ***   
       PROPS                IPROPS         OFF         [  0]    ***   
       PROP_INTEGR          IINTYP         INTERNAL    [  0]    ***   
       PSI                  IPSI           OFF         [  0]    ***   
       QC_ALG               IQCALG         FLM         [  0]    ***   
       QC_LINALG            IQCLIN         TRIDIAG     [  2]    ***   
       QC_MAXCYC            IQCMAX          10D-100           cycles  
       QC_MAXSCFCY          IQCMSC          10D- 15           cycles  
       QC_RTRUST            IQCRTR          10D-  0           x 10-3  
       QC_SKIPSCF           IQCSKI         OFF         [  0]    ***   
       QC_START             IQCSTA          10D-  1             ***   
       QRHFGUESS            IQGUES         OFF         [  0]    ***   
       QUARTIC              IQUART         OFF         [  0]    ***   
       RAMAN_INT            IRAMIN         OFF         [  0]    ***   
       RAMAN_ORB            IRAMRE         UNRELAXED   [  0]    ***   
       RDO                  IRDOFM         ON          [  1]    ***   
       REDUCE_REPR          REDREP         Ir          [  0]    ***   
       REFERENCE            IREFNC         UHF         [  1]    ***   
       RELATIVIST           IRELAT         OFF         [  0]    ***   
       RELAX_DENS           IRDENS         ON          [  1]    ***   
       RESET_FLAGS          IRESET         OFF         [  0]    ***   
       RESTART_CC           ICCRES         OFF         [  0]    ***   
       ROT_EVEC             ROTVEC              0               ***   
       SAVE_INTS            ISVINT         OFF         [  0]    ***   
       SCALE_ON             ISTCRT              0               ***   
       SCF_CONV             ISCFCV          10D- 12             ***   
       SCF_DAMPING          IDAMP               0             x 10-3  
       SCF_EXPORDE          IRPPOR              6               ***   
       SCF_EXPSTAR          IRPPLS              8               ***   
       SCF_EXTRAPO          IRPP           ON          [  1]    ***   
       SCF_MAXCYC           ISCFCY            200              cycles 
       SCF_NOSTOP           ISCFST         OFF         [  0]    ***   
       SCF_PRINT            ISCFPR              0               ***   
       SCF_PROG             ISCFPR         SCF         [  0]    ***   
       SD_FIELD             IFINSD              0             x 10-6  
       SOPERT               IPERSO         OFF         [  0]    ***   
       SPHERICAL            IDFGHI         ON          [  1]    ***   
       SPINORBIT            ISOCAL         OFF         [  0]    ***   
       SPINROTATIO          ISRCON         OFF         [  0]    ***   
       SPIN_FLIP            ISPFLP         OFF         [  0]    ***   
       SPIN_ORBIT           ISPORB         OFF         [  0]    ***   
       SPIN_SCAL            ISCSMP         OFF         [  0]    ***   
       STEEPSCALE           ISTPSC              1000          x 10-3  
       SUBGROUP             ISUBGP         DEFAULT     [  0]    ***   
       SUBGRPAXIS           ISBXYZ         X           [  0]    ***   
       SYMMETRY             ISYM           ON          [  0]    ***   
       SYM_CHECK            ISYMCK         OVERRIDE    [  1]    ***   
       T3_EXTRAPOL          IT3EXT         OFF         [  0]    ***   
       T4_EXTRAPOL          IT4EXP         OFF         [  0]    ***   
       TAMP_SUM             IEVERY              5               ***   
       TESTSUITE            ITESTS         OFF         [  0]    ***   
       THERMOCH             ITHERM         OFF         [  0]    ***   
       TOL_CHOLESK          ITOLCH          10D-  4             ***   
       TRANGRAD             IRESRM         OFF         [  0]    ***   
       TRANS_INV            ITRAIN         USE         [  0]    ***   
       TREAT_PERT           ITREAT         SIMULTANEOUS[  0]    ***   
       TRIP_ALGORI          ITRALG         NORMAL      [  0]    ***   
       UIJ_THRESHO          IUIJTH              1               ***   
       UNITS                IUNITS         ANGSTROM    [  0]    ***   
       UNOS                 IUNOS          OFF         [  0]    ***   
       UPDATE_HESS          IHUPDT         ON          [  1]    ***   
       VIBPHASE             ISETPH         STANDARD    [  0]    ***   
       VIBRATION            IVIB           NO          [  0]    ***   
       VIB_ALGORIT          IGEALG         STANDARD    [  0]    ***   
       VNATORB              IVNORB         OFF         [  0]    ***   
       VTRAN                IVTRAN         FULL/PARTIAL[  0]    ***   
       XFIELD               IXEFLD              0             x 10-6  
       XFORM_TOL            IXFTOL          10D- 11             ***   
       YFIELD               IYEFLD              0             x 10-6  
       ZFIELD               IZEFLD              0             x 10-6  
       ZSCALE_EXP           IZEXPS         OFF         [  0]    ***   
    -------------------------------------------------------------------
  @GETXYZ-I,     4 atoms read from ZMAT.
   Rotational constants (in cm-1): 
          0.4665502303             0.4776008949            20.1639280844
   Rotational constants (in MHz): 
      13986.8259912819         14318.1166298389        604499.4410248181
********************************************************************************
   The full molecular point group is C2h .
   The largest Abelian subgroup of the full molecular point group is C2h .
   The computational point group is C2h .
********************************************************************************


 ----------------------------------------------------------------
         Coordinates used in calculation (QCOMP) 
 ----------------------------------------------------------------
 Z-matrix   Atomic            Coordinates (in bohr)
  Symbol    Number           X              Y              Z
 ----------------------------------------------------------------
     O         8        -1.97911078     0.02349862     0.00000000
     H         1        -0.60826908    -1.21342655     0.00000000
     O         8         1.97911078    -0.02349862     0.00000000
     H         1         0.60826908     1.21342655     0.00000000
 ----------------------------------------------------------------
 
   Interatomic distance matrix (Angstroms) 
 
                 O             H             O             H    
                [ 1]        [ 2]        [ 3]        [ 4]
  O    [ 1]     0.00000
  H    [ 2]     0.97707     0.00000
  O    [ 3]     2.09475     1.50704     0.00000
  H    [ 4]     1.50704     1.43656     0.97707     0.00000
 rotcon2
   Rotational constants (in cm-1): 
         20.1639280844             0.4776008949             0.4665502303
   Rotational constants (in MHz): 
     604499.4410248206         14318.1166298389         13986.8259912819
  There are   2 frozen-core orbitals.
  There are   2 frozen-core orbitals.
  There are  138 basis functions.
 @CHECKOUT-I, Total execution time (CPU/WALL):        0.07/       0.10 seconds.
--executable xjoda finished with status     0 in        0.12 seconds (walltime).
 --invoking executable--
/apps/eb/cfour/2.1-iompi-2018a-serial/bin/xvmol
 SERIAL VERSION OF MOLECULE STARTED
********************************************************************************
                    INPUT FROM MOL FILE
********************************************************************************
INTGRL        1    0    1    0    0    0    0    0    0                         
         *** CFOUR Program System (Release V0.1) ***                            
CFOUR Optimization JOB                                                          
    2    2 Z  XY      0.10E-08              0    0                              
   9999.00      3.00                                                            
          8.00000000    1    4    1    1    1    1                              
O #1  -1.979110780013281   0.023498619219875   0.000000000000000                
   11    5                                                                      
   15330.0000000000       5.080000000000000E-004 -1.150000000000000E-004        
  0.000000000000000E+000  0.000000000000000E+000  0.000000000000000E+000        
   2299.00000000000       3.929000000000000E-003 -8.950000000000000E-004        
  0.000000000000000E+000  0.000000000000000E+000  0.000000000000000E+000        
   522.400000000000       2.024300000000000E-002 -4.636000000000000E-003        
  0.000000000000000E+000  0.000000000000000E+000  0.000000000000000E+000        
   147.300000000000       7.918100000000000E-002 -1.872400000000000E-002        
  0.000000000000000E+000  0.000000000000000E+000  0.000000000000000E+000        
   47.5500000000000       0.230687000000000      -5.846300000000000E-002        
  0.000000000000000E+000  0.000000000000000E+000  0.000000000000000E+000        
   16.7600000000000       0.433118000000000      -0.136463000000000             
  0.000000000000000E+000  0.000000000000000E+000  0.000000000000000E+000        
   6.20700000000000       0.350260000000000      -0.175740000000000             
  0.000000000000000E+000  0.000000000000000E+000  0.000000000000000E+000        
   1.75200000000000       4.272800000000000E-002  0.160934000000000             
   1.00000000000000       0.000000000000000E+000  0.000000000000000E+000        
  0.688200000000000      -8.154000000000000E-003  0.603418000000000             
  0.000000000000000E+000  0.000000000000000E+000  0.000000000000000E+000        
  0.238400000000000       2.381000000000000E-003  0.378765000000000             
  0.000000000000000E+000   1.00000000000000       0.000000000000000E+000        
  7.376000000000001E-002  0.000000000000000E+000  0.000000000000000E+000        
  0.000000000000000E+000  0.000000000000000E+000   1.00000000000000             
    6    4                                                                      
   34.4600000000000       1.592800000000000E-002  0.000000000000000E+000        
  0.000000000000000E+000  0.000000000000000E+000                                
   7.74900000000000       9.974000000000000E-002  0.000000000000000E+000        
  0.000000000000000E+000  0.000000000000000E+000                                
   2.28000000000000       0.310492000000000       0.000000000000000E+000        
  0.000000000000000E+000  0.000000000000000E+000                                
  0.715600000000000       0.491026000000000        1.00000000000000             
  0.000000000000000E+000  0.000000000000000E+000                                
  0.214000000000000       0.336337000000000       0.000000000000000E+000        
   1.00000000000000       0.000000000000000E+000                                
  5.974000000000000E-002  0.000000000000000E+000  0.000000000000000E+000        
  0.000000000000000E+000   1.00000000000000                                     
    3    3                                                                      
   2.31400000000000        1.00000000000000       0.000000000000000E+000        
  0.000000000000000E+000                                                        
  0.645000000000000       0.000000000000000E+000   1.00000000000000             
  0.000000000000000E+000                                                        
  0.214000000000000       0.000000000000000E+000  0.000000000000000E+000        
   1.00000000000000                                                             
    2    2                                                                      
   1.42800000000000        1.00000000000000       0.000000000000000E+000        
  0.500000000000000       0.000000000000000E+000   1.00000000000000             
          1.00000000    1    3    1    1    1                                   
H #2  -0.608269078961457  -1.213426548122222   0.000000000000000                
    6    4                                                                      
   33.8700000000000       6.068000000000000E-003  0.000000000000000E+000        
  0.000000000000000E+000  0.000000000000000E+000                                
   5.09500000000000       4.530800000000000E-002  0.000000000000000E+000        
  0.000000000000000E+000  0.000000000000000E+000                                
   1.15900000000000       0.202822000000000       0.000000000000000E+000        
  0.000000000000000E+000  0.000000000000000E+000                                
  0.325800000000000       0.503903000000000        1.00000000000000             
  0.000000000000000E+000  0.000000000000000E+000                                
  0.102700000000000       0.383421000000000       0.000000000000000E+000        
   1.00000000000000       0.000000000000000E+000                                
  2.526000000000000E-002  0.000000000000000E+000  0.000000000000000E+000        
  0.000000000000000E+000   1.00000000000000                                     
    3    3                                                                      
   1.40700000000000        1.00000000000000       0.000000000000000E+000        
  0.000000000000000E+000                                                        
  0.388000000000000       0.000000000000000E+000   1.00000000000000             
  0.000000000000000E+000                                                        
  0.102000000000000       0.000000000000000E+000  0.000000000000000E+000        
   1.00000000000000                                                             
    2    2                                                                      
   1.05700000000000        1.00000000000000       0.000000000000000E+000        
  0.247000000000000       0.000000000000000E+000   1.00000000000000             
FINISH                                                                          
 
********************************************************************************
 ONE- AND TWO-ELECTRON INTEGRALS OVER SYMMETRY-ADAPTED AOS ARE CALCULATED.

  SPHERICAL HARMONICS ARE USED.
  
  INTEGRALS LESS THAN  0.10E-13 ARE NEGLECTED.

  NUCLEAR REPULSION ENERGY :   30.8198167216 A.U.
  @MOLECU-I, ONE ELECTRON INTEGRALS (CPU/WALL):        0.02/       0.02 SECONDS.
  @TWOEL-I,    1246094 INTEGRALS OF SYMMETRY TYPE  I I I I
  @TWOEL-I,    4620815 INTEGRALS OF SYMMETRY TYPE  I J I J
  @TWOEL-I,    2438161 INTEGRALS OF SYMMETRY TYPE  I I J J
  @TWOEL-I,    3358092 INTEGRALS OF SYMMETRY TYPE  I J K L
  @TWOEL-I, TOTAL NUMBER OF 2-E INTEGRALS   11663162.
  @MOLECU-I, TWO ELECTRON INTEGRALS (CPU/WALL):        2.62/       2.96 SECONDS.
 @CHECKOUT-I, Total execution time (CPU/WALL):        2.64/       2.98 seconds.

Running with 12 threads/proc

--executable xvmol finished with status     0 in        3.00 seconds (walltime).
 --invoking executable--
/apps/eb/cfour/2.1-iompi-2018a-serial/bin/xvmol2ja
 @GETMEM-I,  Allocated   38146 MB of main memory.
 @CHECKOUT-I, Total execution time (CPU/WALL):        0.01/       0.01 seconds.
--executable xvmol2ja finished with status     0 in        0.02 seconds (walltime).
 --invoking executable--
/apps/eb/cfour/2.1-iompi-2018a-serial/bin/xvscf
  There are  138 functions in the AO basis.

  There are 4 irreducible representations.

       Irrep        # of functions
         1                 46
         2                 23
         3                 46
         4                 23


  Parameters for SCF calculation: 
        SCF reference function:  UHF  
  Maximum number of iterations:  200
     Full symmetry point group: C2h 
     Computational point group: C2h 
        Initial density matrix: CORE                   
     SCF convergence tolerance: 10**(-12)
  DIIS convergence acceleration:  ON
          Latest start for DIIS:   8
                     DIIS order:   6

  Memory information:     904766 words required.
  Fock matrices are constructed from AO integral file.
 @GETMEM-I,  Allocated       6 MB of main memory.
  Initialization and symmetry analysis required      0.001 seconds.

  @INITGES-I, Occupancies from core Hamiltonian:

          Alpha population by irrep:   4    1    4    1
           Beta population by irrep:   3    1    3    1


 total no. of electrons in initial guess :  0.000000000000000E+000
 total no. of electrons in initial guess :  0.000000000000000E+000
  --------------------------------------------------------------------
  Iteration         Total Energy            Largest Density Difference
  --------------------------------------------------------------------
       0            30.819816721580274              0.0000000000D+00
   current occupation vector 
     4  1  4  1
     3  1  3  1
       1          -128.652037960445341              0.2990242219D+01
   current occupation vector 
     4  1  4  1
     3  1  3  1
       2          -130.095900916123014              0.2584396623D+02
   current occupation vector 
     5  1  4  0
     3  1  4  0
       3          -145.083273600757082              0.2585407594D+02
   current occupation vector 
     4  1  4  1
     4  1  3  0
       4          -143.412987887937135              0.1487688908D+02
   current occupation vector 
     5  1  4  0
     4  0  4  0
       5          -148.465808885620447              0.1487716093D+02
   current occupation vector 
     4  1  4  1
     4  1  3  0
       6          -149.690648668728358              0.8903221248D+00
   current occupation vector 
     4  1  4  1
     4  1  3  0
       7          -150.429714228001046              0.6227683824D+00
   current occupation vector 
     4  1  4  1
     4  1  3  0
       8          -150.645561660288962              0.2534647883D+00
   current occupation vector 
     4  1  4  1
     4  1  3  0
       9          -150.712341267382726              0.6997470144D-01
   current occupation vector 
     4  1  4  1
     4  1  3  0
      10          -150.713361905635338              0.6448645614D-02
   current occupation vector 
     4  1  4  1
     4  1  3  0
      11          -150.713638397196860              0.5089402539D-02
   current occupation vector 
     4  1  4  1
     4  1  3  0
      12          -150.713665362557037              0.1807989991D-02
   current occupation vector 
     4  1  4  1
     4  1  3  0
      13          -150.713669210078962              0.6816531597D-03
   current occupation vector 
     4  1  4  1
     4  1  3  0
      14          -150.713670315673994              0.5232791212D-03
   current occupation vector 
     4  1  4  1
     4  1  3  0
      15          -150.713670424104919              0.1325476084D-03
   current occupation vector 
     4  1  4  1
     4  1  3  0
      16          -150.713670431751638              0.2373935788D-04
   current occupation vector 
     4  1  4  1
     4  1  3  0
      17          -150.713670432058109              0.5565638693D-05
   current occupation vector 
     4  1  4  1
     4  1  3  0
      18          -150.713670432129106              0.3566495783D-05
   current occupation vector 
     4  1  4  1
     4  1  3  0
      19          -150.713670432140560              0.1489076099D-05
   current occupation vector 
     4  1  4  1
     4  1  3  0
      20          -150.713670432141981              0.6559310033D-06
   current occupation vector 
     4  1  4  1
     4  1  3  0
      21          -150.713670432141839              0.2700306128D-06
   current occupation vector 
     4  1  4  1
     4  1  3  0
      22          -150.713670432143601              0.1463781455D-06
   current occupation vector 
     4  1  4  1
     4  1  3  0
      23          -150.713670432143317              0.3339495847D-07
   current occupation vector 
     4  1  4  1
     4  1  3  0
      24          -150.713670432143573              0.6216427706D-08
   current occupation vector 
     4  1  4  1
     4  1  3  0
      25          -150.713670432143260              0.1175898767D-08
   current occupation vector 
     4  1  4  1
     4  1  3  0
      26          -150.713670432143147              0.1444964287D-09
   current occupation vector 
     4  1  4  1
     4  1  3  0
      27          -150.713670432143090              0.1624215207D-09
   current occupation vector 
     4  1  4  1
     4  1  3  0
      28          -150.713670432144283              0.3966993400D-10
   current occupation vector 
     4  1  4  1
     4  1  3  0
      29          -150.713670432144539              0.3213812549D-10
   current occupation vector 
     4  1  4  1
     4  1  3  0
      30          -150.713670432143800              0.8941958285D-11
   current occupation vector 
     4  1  4  1
     4  1  3  0
      31          -150.713670432143658              0.8544553953D-11
   current occupation vector 
     4  1  4  1
     4  1  3  0
      32          -150.713670432144482              0.5450889740D-11
   current occupation vector 
     4  1  4  1
     4  1  3  0
      33          -150.713670432144170              0.4458725056D-11
   current occupation vector 
     4  1  4  1
     4  1  3  0
      34          -150.713670432143346              0.3568714768D-11
   current occupation vector 
     4  1  4  1
     4  1  3  0
      35          -150.713670432144170              0.3598402826D-11
   current occupation vector 
     4  1  4  1
     4  1  3  0
      36          -150.713670432144113              0.3685506761D-11
   current occupation vector 
     4  1  4  1
     4  1  3  0
      37          -150.713670432143658              0.3693080564D-11
   current occupation vector 
     4  1  4  1
     4  1  3  0
      38          -150.713670432143715              0.1889502443D-11
   current occupation vector 
     4  1  4  1
     4  1  3  0
      39          -150.713670432143772              0.1065633692D-11
   current occupation vector 
     4  1  4  1
     4  1  3  0
      40          -150.713670432143203              0.1196855115D-11
   current occupation vector 
     4  1  4  1
     4  1  3  0
      41          -150.713670432144511              0.4310919677D-11
   current occupation vector 
     4  1  4  1
     4  1  3  0
      42          -150.713670432144170              0.5264746972D-11
   current occupation vector 
     4  1  4  1
     4  1  3  0
      43          -150.713670432143573              0.3000370785D-11
   current occupation vector 
     4  1  4  1
     4  1  3  0
      44          -150.713670432142919              0.5085125029D-11
   current occupation vector 
     4  1  4  1
     4  1  3  0
      45          -150.713670432144482              0.3880992749D-11
   current occupation vector 
     4  1  4  1
     4  1  3  0
      46          -150.713670432144312              0.1974684305D-11
   current occupation vector 
     4  1  4  1
     4  1  3  0
      47          -150.713670432144568              0.4936620557D-11
   current occupation vector 
     4  1  4  1
     4  1  3  0
      48          -150.713670432144141              0.5308323225D-11
   current occupation vector 
     4  1  4  1
     4  1  3  0
      49          -150.713670432144681              0.8454011102D-10
   current occupation vector 
     4  1  4  1
     4  1  3  0
      50          -150.713670432145079              0.9172825693D-10
   current occupation vector 
     4  1  4  1
     4  1  3  0
      51          -150.713670432144397              0.9846831683D-11
   current occupation vector 
     4  1  4  1
     4  1  3  0
      52          -150.713670432143147              0.6765730337D-11
   current occupation vector 
     4  1  4  1
     4  1  3  0
      53          -150.713670432142465              0.5193734331D-11
   current occupation vector 
     4  1  4  1
     4  1  3  0
      54          -150.713670432145477              0.4912806273D-11
   current occupation vector 
     4  1  4  1
     4  1  3  0
      55          -150.713670432143743              0.3886137939D-11
   current occupation vector 
     4  1  4  1
     4  1  3  0
      56          -150.713670432144937              0.4179580293D-11
   current occupation vector 
     4  1  4  1
     4  1  3  0
      57          -150.713670432143999              0.2873729033D-11
   current occupation vector 
     4  1  4  1
     4  1  3  0
      58          -150.713670432144710              0.2380040609D-11
   current occupation vector 
     4  1  4  1
     4  1  3  0

  SCF has converged.

 Density matrix saved to file den.dat
 total alpha spin electron number:   10.0000000000000     
 total  beta spin electron number:   8.00000000000002     
     E(SCF)=      -150.713670432144141              0.9087869346D-12


  Final occupancies:

     Alpha population by irrep:   4    1    4    1
      Beta population by irrep:   4    1    3    0


  Eigenvector printing suppressed.


       The average multiplicity is    3.0852803
  The expectation value of S**2 is    2.1297386

 @PUTMOS-I, Writing converged MOs to NEWMOS. 
 @PUTMOS-I, Symmetry   1 Full Blocks 11 Partial Blocksize   2
 @PUTMOS-I, Symmetry   2 Full Blocks  5 Partial Blocksize   3
 @PUTMOS-I, Symmetry   3 Full Blocks 11 Partial Blocksize   2
 @PUTMOS-I, Symmetry   4 Full Blocks  5 Partial Blocksize   3
 @PUTFOCK-I, Writing converged Fock matrix to NEWFOCK. 
 @PUTFOCK-I, Symmetry   1 Full Blocks 11 Partial Blocksize   2
 @PUTFOCK-I, Symmetry   2 Full Blocks  5 Partial Blocksize   3
 @PUTFOCK-I, Symmetry   3 Full Blocks 11 Partial Blocksize   2
 @PUTFOCK-I, Symmetry   4 Full Blocks  5 Partial Blocksize   3


 
  ORBITAL EIGENVALUES (ALPHA)  (1H = 27.2113834 eV)

       MO #        E(hartree)               E(eV)           FULLSYM    COMPSYM
       ----   --------------------   --------------------   -------   ---------
    1    70         -20.7049917536        -563.4114689001      Bu        Bu (3)
    2     1         -20.7049452755        -563.4102041685      Ag        Ag (1)
    3     2          -1.5103016516         -41.0973972902      Ag        Ag (1)
    4    71          -1.4095024053         -38.3545103525      Bu        Bu (3)
    5     3          -0.8162245781         -22.2105999356      Ag        Ag (1)
    6    72          -0.7455406185         -20.2871916112      Bu        Bu (3)
    7    47          -0.6963312993         -18.9481379587      Au        Au (2)
    8   116          -0.6549868848         -17.8230992456      Bg        Bg (4)
    9     4          -0.6325471001         -17.2124816585      Ag        Ag (1)
   10    73          -0.6297269462         -17.1357413691      Bu        Bu (3)
  +++++++++++++++++++++++++++++++++++++++++++++++++++++++++++++++++++++++++++++
   11     5           0.0364224083           0.9911041178      Ag        Ag (1)
   12    74           0.0509231515           1.3856893993      Bu        Bu (3)
   13    75           0.1134401997           3.0868647657      Bu        Bu (3)
   14    48           0.1271012994           3.4586021882      Au        Au (2)
   15     6           0.1592372524           4.3330659260      Ag        Ag (1)
   16     7           0.1618603475           4.4044439723      Ag        Ag (1)
   17   117           0.1944008840           5.2899169866      Bg        Bg (4)
   18    76           0.1958920186           5.3304928233      Bu        Bu (3)
   19     8           0.1962565566           5.3404124075      Ag        Ag (1)
   20   118           0.2719154767           7.3991962881      Bg        Bg (4)
   21    77           0.2720738100           7.4035047558      Bu        Bu (3)
   22     9           0.2768793508           7.5342701700      Ag        Ag (1)
   23    78           0.3069155735           8.3515973432      Bu        Bu (3)
   24    49           0.3437312585           9.3534030612      Au        Au (2)
   25    79           0.3815812510          10.3833537196      Bu        Bu (3)
   26    10           0.4421550909          12.0316517017      Ag        Ag (1)
   27    11           0.4662525208          12.6873761036      Ag        Ag (1)
   28    80           0.4788845623          13.0311114296      Bu        Bu (3)
   29    81           0.5475693710          14.9001200911      Bu        Bu (3)
   30    12           0.6425336247          17.4842288089      Ag        Ag (1)
   31    50           0.6591999391          17.9377422805      Au        Au (2)
   32    51           0.6995249816          19.0350424717      Au        Au (2)
   33   119           0.7188877358          19.5619298013      Bg        Bg (4)
   34    82           0.7396696199          20.1274336164      Bu        Bu (3)
   35    13           0.7410505452          20.1650105032      Ag        Ag (1)
   36    14           0.7897148921          21.4892347046      Ag        Ag (1)
   37   120           0.8277291522          22.5236553122      Bg        Bg (4)
   38    83           0.8312718565          22.6200571967      Bu        Bu (3)
   39    84           0.8915610891          24.2606106188      Bu        Bu (3)
   40    52           0.8933718172          24.3098830369      Au        Au (2)
   41    15           0.9088141716          24.7300908636      Ag        Ag (1)
   42    85           0.9316771767          25.3522248591      Bu        Bu (3)
   43    53           0.9593831150          26.1061417707      Au        Au (2)
   44   121           0.9670447381          26.3146251342      Bg        Bg (4)
   45    16           0.9717915682          26.4437929465      Ag        Ag (1)
   46    17           1.0153761544          27.6297898331      Ag        Ag (1)
   47    86           1.0575770711          28.7781351562      Bu        Bu (3)
   48   122           1.0649467831          28.9786752150      Bg        Bg (4)
   49    18           1.0930193804          29.7425694229      Ag        Ag (1)
   50    87           1.1460843678          31.1865411415      Bu        Bu (3)
   51   123           1.1976339740          32.5892772385      Bg        Bg (4)
   52    88           1.2314446879          33.5093135376      Bu        Bu (3)
   53    54           1.3197882517          35.9132641236      Au        Au (2)
   54    19           1.3324094202          36.2567035778      Ag        Ag (1)
   55    20           1.3778644960          37.4935990729      Ag        Ag (1)
   56    89           1.4177322123          38.5784547866      Bu        Bu (3)
   57    21           1.4551987607          39.5979714020      Ag        Ag (1)
   58    55           1.4813798644          40.3103954512      Au        Au (2)
   59   124           1.5318572658          41.6839553750      Bg        Bg (4)
   60    22           1.6866765116          45.8968012276      Ag        Ag (1)
   61    90           1.7774211525          48.3660884426      Bu        Bu (3)
   62    91           1.9747618722          53.7360024291      Bu        Bu (3)
   63    23           2.0736650460          56.4272946112      Ag        Ag (1)
   64    92           2.1113838336          57.4536750003      Bu        Bu (3)
   65    56           2.1151134401          57.5551627541      Au        Au (2)
   66   125           2.1464655553          58.4082971805      Bg        Bg (4)
   67    93           2.1966490446          59.7738593477      Bu        Bu (3)
   68    57           2.2166020592          60.3168084782      Au        Au (2)
   69   126           2.2667825292          61.6822884852      Bg        Bg (4)
   70    24           2.2754139316          61.9171608865      Ag        Ag (1)
   71    58           2.2805607202          62.0572121231      Au        Au (2)
   72    25           2.3890203444          65.0085485417      Ag        Ag (1)
   73    94           2.3894778825          65.0209987871      Bu        Bu (3)
   74    26           2.4290231060          66.0970790245      Ag        Ag (1)
   75    95           2.4330888727          66.2077141607      Bu        Bu (3)
   76    96           2.4449634395          66.5308375510      Bu        Bu (3)
   77    59           2.4911373977          67.7872948316      Au        Au (2)
   78   127           2.5042339601          68.1436704106      Bg        Bg (4)
   79    27           2.5044056001          68.1483409736      Ag        Ag (1)
   80    28           2.6068127524          70.9349812585      Ag        Ag (1)
   81    97           2.6126940448          71.0950193613      Bu        Bu (3)
   82   128           2.6903429303          73.2079529533      Bg        Bg (4)
   83    60           2.7437025960          74.6599432758      Au        Au (2)
   84    29           2.7868565215          75.8342212869      Ag        Ag (1)
   85   129           2.8065735809          76.3707497494      Bg        Bg (4)
   86    30           2.8519124497          77.6044830910      Ag        Ag (1)
   87    98           3.1124137778          84.6930846076      Bu        Bu (3)
   88    99           3.2007148052          87.0958777179      Bu        Bu (3)
   89    31           3.8473471920         104.6916395148      Ag        Ag (1)
   90   100           3.8689149732         105.2785286772      Bu        Bu (3)
   91    32           3.9391727777         107.1903407337      Ag        Ag (1)
   92   130           4.0281230113         109.6107996421      Bg        Bg (4)
   93    61           4.0539377997         110.3132557467      Au        Au (2)
   94   101           4.0903395142         111.3037967566      Bu        Bu (3)
   95   131           4.1944025923         114.1354970723      Bg        Bg (4)
   96    62           4.3607174715         118.6611550149      Au        Au (2)
   97   132           4.3645982523         118.7667564307      Bg        Bg (4)
   98    63           4.3964343184         119.6330598322      Au        Au (2)
   99   102           4.4691298440         121.6112056502      Bu        Bu (3)
  100    33           4.7103426280         128.1749391964      Ag        Ag (1)
  101   103           4.7910427790         130.3709019460      Bu        Bu (3)
  102    34           4.8204232763         131.1703859214      Ag        Ag (1)
  103    35           5.0053952597         136.2037294797      Ag        Ag (1)
  104   104           5.0937172223         138.6070922673      Bu        Bu (3)
  105    36           5.1953242265         141.3719594144      Ag        Ag (1)
  106   133           5.2096059082         141.7605837314      Bg        Bg (4)
  107    64           5.2645108401         143.2546228828      Au        Au (2)
  108    37           5.3956882663         146.8241421213      Ag        Ag (1)
  109   105           5.5456981946         150.9061197939      Bu        Bu (3)
  110   106           5.6365386601         153.3780145287      Bu        Bu (3)
  111    38           6.1990409371         168.6844796511      Ag        Ag (1)
  112   107           6.2076289721         168.9181719657      Bu        Bu (3)
  113    65           6.5248904191         177.5512948378      Au        Au (2)
  114    39           6.6011653676         179.6268417047      Ag        Ag (1)
  115   108           6.6267619490         180.3233600959      Bu        Bu (3)
  116   109           6.6444135156         180.8036836404      Bu        Bu (3)
  117   134           6.6605375045         181.2424396864      Bg        Bg (4)
  118   135           6.6868597628         181.9587047473      Bg        Bg (4)
  119    66           6.7000280345         182.3170316368      Au        Au (2)
  120    40           6.8453651123         186.2718545841      Ag        Ag (1)
  121   136           6.9838053637         190.0390053432      Bg        Bg (4)
  122    67           7.0135898837         190.8494833348      Au        Au (2)
  123   110           7.0578008935         192.0525260739      Bu        Bu (3)
  124   137           7.1006564763         193.2186857678      Bg        Bg (4)
  125    68           7.1335876010         194.1147872294      Au        Au (2)
  126    41           7.1538053997         194.6649414989      Ag        Ag (1)
  127   138           7.1883062488         195.6037573318      Bg        Bg (4)
  128   111           7.2079554531         196.1384393647      Bu        Bu (3)
  129    69           7.2462919037         197.1816272210      Au        Au (2)
  130    42           7.3174828179         199.1188304811      Ag        Ag (1)
  131   112           7.3334249273         199.5526373307      Bu        Bu (3)
  132    43           7.5958047622         206.6923556147      Ag        Ag (1)
  133    44           7.7176581870         210.0081558773      Ag        Ag (1)
  134   113           7.8702344590         214.1599673106      Bu        Bu (3)
  135    45           8.0630420134         219.4065275971      Ag        Ag (1)
  136   114           8.1630832651         222.1287884532      Bu        Bu (3)
  137    46          13.6081460685         370.2964800343      Ag        Ag (1)
  138   115          14.7914016533         402.4945014119      Bu        Bu (3)


 
  ORBITAL EIGENVALUES ( BETA)  (1H = 27.2113834 eV)

       MO #        E(hartree)               E(eV)           FULLSYM    COMPSYM
       ----   --------------------   --------------------   -------   ---------
    1     1         -20.6498124254        -561.9099630450      Ag        Ag (1)
    2    70         -20.6497377423        -561.9079308159      Bu        Bu (3)
    3     2          -1.3435561261         -36.5600208666      Ag        Ag (1)
    4    71          -1.1974299182         -32.5837245984      Bu        Bu (3)
    5    72          -0.7014296236         -19.0868704172      Bu        Bu (3)
    6     3          -0.6461435452         -17.5824597401      Ag        Ag (1)
    7     4          -0.4435035040         -12.0683438874      Ag        Ag (1)
    8    47          -0.3654563821          -9.9445737283      Au        Au (2)
  +++++++++++++++++++++++++++++++++++++++++++++++++++++++++++++++++++++++++++++
    9   116          -0.0447765078          -1.2184307212      Bg        Bg (4)
   10    73          -0.0089902123          -0.2446361132      Bu        Bu (3)
   11     5           0.0357954973           0.9740450009      Ag        Ag (1)
   12    74           0.0556376021           1.5139761217      Bu        Bu (3)
   13    75           0.1204262940           3.2769660570      Bu        Bu (3)
   14    48           0.1415514669           3.8518112360      Au        Au (2)
   15     6           0.1615821721           4.3968744361      Ag        Ag (1)
   16     7           0.1634447074           4.4475565967      Ag        Ag (1)
   17     8           0.2003573900           5.4520017550      Ag        Ag (1)
   18   117           0.2102020134           5.7198875770      Bg        Bg (4)
   19    76           0.2112917144           5.7495398506      Bu        Bu (3)
   20   118           0.2689051426           7.3172809326      Bg        Bg (4)
   21    77           0.2723407558           7.4107687225      Bu        Bu (3)
   22     9           0.2732577497           7.4357213947      Ag        Ag (1)
   23    78           0.3107112167           8.4548820439      Bu        Bu (3)
   24    49           0.3679617977          10.0127495527      Au        Au (2)
   25    79           0.3810538601          10.3690026829      Bu        Bu (3)
   26    10           0.4693473670          12.7715911499      Ag        Ag (1)
   27    11           0.4771209792          12.9831218926      Ag        Ag (1)
   28    80           0.4837272267          13.1628870268      Bu        Bu (3)
   29    81           0.5439897853          14.8027146138      Bu        Bu (3)
   30    12           0.6438295284          17.5194921420      Ag        Ag (1)
   31    50           0.6630243173          18.0418089027      Au        Au (2)
   32    51           0.7030697121          19.1314994935      Au        Au (2)
   33   119           0.7167575662          19.5039649385      Bg        Bg (4)
   34    13           0.7591441498          20.6573625160      Ag        Ag (1)
   35    82           0.7612064608          20.7134808511      Bu        Bu (3)
   36    14           0.7946618306          21.6238477454      Ag        Ag (1)
   37    83           0.8504996373          23.1432717120      Bu        Bu (3)
   38   120           0.8643928142          23.5213242745      Bg        Bg (4)
   39    84           0.8946034147          24.3433965074      Bu        Bu (3)
   40    52           0.9375833728          25.5129406267      Au        Au (2)
   41    15           0.9387061244          25.5434922497      Ag        Ag (1)
   42    85           0.9520660019          25.9070330001      Bu        Bu (3)
   43    53           0.9811004353          26.6971000998      Au        Au (2)
   44    16           0.9832395299          26.7553078227      Ag        Ag (1)
   45   121           0.9908939819          26.9635960489      Bg        Bg (4)
   46    17           1.0442187927          28.4146379215      Ag        Ag (1)
   47    86           1.0618656887          28.8948343744      Bu        Bu (3)
   48   122           1.0928370621          29.7376082898      Bg        Bg (4)
   49    18           1.1059036636          30.0931685934      Ag        Ag (1)
   50    87           1.1487593724          31.2593317168      Bu        Bu (3)
   51   123           1.2017789050          32.7020665455      Bg        Bg (4)
   52    88           1.2319413286          33.5228278194      Bu        Bu (3)
   53    54           1.3353049617          36.3354952682      Au        Au (2)
   54    19           1.3582464143          36.9597639307      Ag        Ag (1)
   55    20           1.3906192853          37.8406745352      Ag        Ag (1)
   56    89           1.4462877414          39.3554902380      Bu        Bu (3)
   57    21           1.4635826253          39.8261079554      Ag        Ag (1)
   58    55           1.4858528150          40.4321106253      Au        Au (2)
   59   124           1.5381037499          41.8539308469      Bg        Bg (4)
   60    22           1.7083560902          46.4867325547      Ag        Ag (1)
   61    90           1.7871872331          48.6318370069      Bu        Bu (3)
   62    91           2.0031972251          54.5097677169      Bu        Bu (3)
   63    23           2.1071752235          57.3391528973      Ag        Ag (1)
   64    92           2.1509822902          58.5312037846      Bu        Bu (3)
   65    56           2.1709437550          59.0743828581      Au        Au (2)
   66   125           2.2276693669          60.6179652300      Bg        Bg (4)
   67    57           2.2350390609          60.8185047991      Au        Au (2)
   68    93           2.2503558946          61.2352970341      Bu        Bu (3)
   69   126           2.3038741634          62.6916031664      Bg        Bg (4)
   70    58           2.3163120342          63.0300548356      Au        Au (2)
   71    24           2.3183126829          63.0844952562      Ag        Ag (1)
   72    25           2.4009632627          65.3335318714      Ag        Ag (1)
   73    94           2.4123300032          65.6428366035      Bu        Bu (3)
   74    95           2.4596783268          66.9312499905      Bu        Bu (3)
   75    96           2.4620096061          66.9946873270      Bu        Bu (3)
   76    26           2.4624284408          67.0060843964      Ag        Ag (1)
   77    59           2.5006469135          68.0460619116      Au        Au (2)
   78   127           2.5170133338          68.4914148485      Bg        Bg (4)
   79    27           2.5243763767          68.6917734331      Ag        Ag (1)
   80    28           2.6199799827          71.2932798107      Ag        Ag (1)
   81    97           2.6380542780          71.7851063899      Bu        Bu (3)
   82   128           2.7119756017          73.7966078699      Bg        Bg (4)
   83    60           2.7775956990          75.5822214964      Au        Au (2)
   84    29           2.8190708664          76.7108181763      Ag        Ag (1)
   85   129           2.8305299117          77.0226346516      Bg        Bg (4)
   86    30           2.8765838717          78.2758266160      Ag        Ag (1)
   87    98           3.1447344328          85.5725743414      Bu        Bu (3)
   88    99           3.2280245452          87.8390135229      Bu        Bu (3)
   89    31           3.8575706366         104.9698335861      Ag        Ag (1)
   90   100           3.8683451987         105.2630243254      Bu        Bu (3)
   91    32           3.9673630724         107.9574376500      Ag        Ag (1)
   92   130           4.0798920725         111.0195074152      Bg        Bg (4)
   93    61           4.1289607691         112.3547345310      Au        Au (2)
   94   101           4.1515025981         112.9681288832      Bu        Bu (3)
   95   131           4.2272267623         115.0286881480      Bg        Bg (4)
   96   132           4.3593802561         118.6247675342      Bg        Bg (4)
   97    62           4.3641178002         118.7536826648      Au        Au (2)
   98    63           4.4066766407         119.9117675886      Au        Au (2)
   99   102           4.4685111339         121.5943696923      Bu        Bu (3)
  100    33           4.7283738366         128.6655933251      Ag        Ag (1)
  101   103           4.8178851087         131.1013188689      Bu        Bu (3)
  102    34           4.8233143742         131.2490566957      Ag        Ag (1)
  103    35           5.0338595692         136.9782827190      Ag        Ag (1)
  104   104           5.1140332110         139.1599184256      Bu        Bu (3)
  105    36           5.2146499879         141.8978401166      Ag        Ag (1)
  106   133           5.2378114948         142.5280967609      Bg        Bg (4)
  107    64           5.2970232423         144.1393303257      Au        Au (2)
  108    37           5.4488544981         148.2708688384      Ag        Ag (1)
  109   105           5.5498537868         151.0191992062      Bu        Bu (3)
  110   106           5.6739966006         154.3972969088      Bu        Bu (3)
  111    38           6.2381459881         169.7485821883      Ag        Ag (1)
  112   107           6.2416811702         169.8447793831      Bu        Bu (3)
  113    65           6.5721079089         178.8361480566      Au        Au (2)
  114    39           6.6473935872         180.8847755123      Ag        Ag (1)
  115   108           6.6811759519         181.8040403901      Bu        Bu (3)
  116   109           6.6962752465         182.2149130836      Bu        Bu (3)
  117   134           6.7039662182         182.4241950654      Bg        Bg (4)
  118   135           6.7482483010         183.6291717976      Bg        Bg (4)
  119    66           6.7619454762         184.0018908821      Au        Au (2)
  120    40           6.9154471531         188.1788838650      Ag        Ag (1)
  121   136           7.0956684083         193.0829535374      Bg        Bg (4)
  122    67           7.1057251807         193.3566122268      Au        Au (2)
  123   110           7.1072327040         193.3976340226      Bu        Bu (3)
  124   137           7.1537290171         194.6628630228      Bg        Bg (4)
  125    68           7.1730873980         195.1896313500      Au        Au (2)
  126    41           7.2183468305         196.4212031195      Ag        Ag (1)
  127   138           7.2579756565         197.4995582981      Bg        Bg (4)
  128   111           7.3015245279         198.6845833320      Bu        Bu (3)
  129    69           7.3400942618         199.7341191497      Au        Au (2)
  130    42           7.3573999597         200.2050311308      Ag        Ag (1)
  131   112           7.3849124400         200.9536837813      Bu        Bu (3)
  132    43           7.6348268196         207.7541997807      Ag        Ag (1)
  133    44           7.7860815230         211.8700495055      Ag        Ag (1)
  134   113           7.9049463487         215.1045258510      Bu        Bu (3)
  135    45           8.1141228152         220.7965068798      Ag        Ag (1)
  136   114           8.2112027110         223.4381851434      Bu        Bu (3)
  137    46          13.6470896487         371.3561887237      Ag        Ag (1)
  138   115          14.8316370037         403.5893609576      Bu        Bu (3)


  VSCF finished.

 @CHECKOUT-I, Total execution time (CPU/WALL):        5.03/       5.04 seconds.
--executable xvscf finished with status     0 in        5.06 seconds (walltime).
 --invoking executable--
/apps/eb/cfour/2.1-iompi-2018a-serial/bin/xvtran
 @GETMEM-I,  Allocated   38146 MB of main memory.
  Full UHF integral transformation
  Frozen-core orbitals requested within analytic derivative calculation
  Transformation of IIII integrals :
  2 passes through the AO integral file were required.
     1246094 AO integrals were read.
     1246094 MO integrals (Spin case AAAA) were written to HF2AA.
     1246094 MO integrals (Spin case BBBB) were written to HF2BB.
     2489474 MO integrals (Spin case AABB) were written to HF2AB.
  Transformation of IIJJ integrals :
  2 passes through the AO integral file were required.
     2438161 AO integrals were read.
     2438161 MO integrals (Spin case AAAA) were written to HF2AA.
     2438161 MO integrals (Spin case BBBB) were written to HF2BB.
     4876322 MO integrals (Spin case AABB) were written to HF2AB.
  Transformation of IJIJ integrals :
  2 passes through the AO integral file were required.
     4620815 AO integrals were read.
     4620815 MO integrals (Spin case AAAA) were written to HF2AA.
     4620815 MO integrals (Spin case BBBB) were written to HF2BB.
     9234753 MO integrals (Spin case AABB) were written to HF2AB.
  Transformation of IJKL integrals :
  2 passes through the AO integral file were required.
     3358092 AO integrals were read.
     3358092 MO integrals (Spin case AAAA) were written to HF2AA.
     3358092 MO integrals (Spin case BBBB) were written to HF2BB.
     6716184 MO integrals (Spin case AABB) were written to HF2AB.
  Summary of active molecular orbitals: 
------------------------------------------------------------------------
                         * Spin case alpha *
 
  Index      Eigenvalue    Symmetry    Index      Eigenvalue    Symmetry
------------------------------------------------------------------------
     1       -20.7049453        1        70         6.5248904        2
     2        -1.5103017        1        71         6.7000280        2
     3        -0.8162246        1        72         7.0135899        2
     4        -0.6325471        1        73         7.1335876        2
     5        -0.6963313        2        74         7.2462919        2
     6       -20.7049918        3        75         0.0509232        3
     7        -1.4095024        3        76         0.1134402        3
     8        -0.7455406        3        77         0.1958920        3
     9        -0.6297269        3        78         0.2720738        3
    10        -0.6549869        4        79         0.3069156        3
    11         0.0364224        1        80         0.3815813        3
    12         0.1592373        1        81         0.4788846        3
    13         0.1618603        1        82         0.5475694        3
    14         0.1962566        1        83         0.7396696        3
    15         0.2768794        1        84         0.8312719        3
    16         0.4421551        1        85         0.8915611        3
    17         0.4662525        1        86         0.9316772        3
    18         0.6425336        1        87         1.0575771        3
    19         0.7410505        1        88         1.1460844        3
    20         0.7897149        1        89         1.2314447        3
    21         0.9088142        1        90         1.4177322        3
    22         0.9717916        1        91         1.7774212        3
    23         1.0153762        1        92         1.9747619        3
    24         1.0930194        1        93         2.1113838        3
    25         1.3324094        1        94         2.1966490        3
    26         1.3778645        1        95         2.3894779        3
    27         1.4551988        1        96         2.4330889        3
    28         1.6866765        1        97         2.4449634        3
    29         2.0736650        1        98         2.6126940        3
    30         2.2754139        1        99         3.1124138        3
    31         2.3890203        1       100         3.2007148        3
    32         2.4290231        1       101         3.8689150        3
    33         2.5044056        1       102         4.0903395        3
    34         2.6068128        1       103         4.4691298        3
    35         2.7868565        1       104         4.7910428        3
    36         2.8519124        1       105         5.0937172        3
    37         3.8473472        1       106         5.5456982        3
    38         3.9391728        1       107         5.6365387        3
    39         4.7103426        1       108         6.2076290        3
    40         4.8204233        1       109         6.6267619        3
    41         5.0053953        1       110         6.6444135        3
    42         5.1953242        1       111         7.0578009        3
    43         5.3956883        1       112         7.2079555        3
    44         6.1990409        1       113         7.3334249        3
    45         6.6011654        1       114         7.8702345        3
    46         6.8453651        1       115         8.1630833        3
    47         7.1538054        1       116        14.7914017        3
    48         7.3174828        1       117         0.1944009        4
    49         7.5958048        1       118         0.2719155        4
    50         7.7176582        1       119         0.7188877        4
    51         8.0630420        1       120         0.8277292        4
    52        13.6081461        1       121         0.9670447        4
    53         0.1271013        2       122         1.0649468        4
    54         0.3437313        2       123         1.1976340        4
    55         0.6591999        2       124         1.5318573        4
    56         0.6995250        2       125         2.1464656        4
    57         0.8933718        2       126         2.2667825        4
    58         0.9593831        2       127         2.5042340        4
    59         1.3197883        2       128         2.6903429        4
    60         1.4813799        2       129         2.8065736        4
    61         2.1151134        2       130         4.0281230        4
    62         2.2166021        2       131         4.1944026        4
    63         2.2805607        2       132         4.3645983        4
    64         2.4911374        2       133         5.2096059        4
    65         2.7437026        2       134         6.6605375        4
    66         4.0539378        2       135         6.6868598        4
    67         4.3607175        2       136         6.9838054        4
    68         4.3964343        2       137         7.1006565        4
    69         5.2645108        2       138         7.1883062        4
------------------------------------------------------------------------
------------------------------------------------------------------------
                         * Spin case beta *
 
  Index      Eigenvalue    Symmetry    Index      Eigenvalue    Symmetry
------------------------------------------------------------------------
     1       -20.6498124        1        70         7.1057252        2
     2        -1.3435561        1        71         7.1730874        2
     3        -0.6461435        1        72         7.3400943        2
     4        -0.4435035        1        73        -0.0089902        3
     5        -0.3654564        2        74         0.0556376        3
     6       -20.6497377        3        75         0.1204263        3
     7        -1.1974299        3        76         0.2112917        3
     8        -0.7014296        3        77         0.2723408        3
     9         0.0357955        1        78         0.3107112        3
    10         0.1615822        1        79         0.3810539        3
    11         0.1634447        1        80         0.4837272        3
    12         0.2003574        1        81         0.5439898        3
    13         0.2732577        1        82         0.7612065        3
    14         0.4693474        1        83         0.8504996        3
    15         0.4771210        1        84         0.8946034        3
    16         0.6438295        1        85         0.9520660        3
    17         0.7591441        1        86         1.0618657        3
    18         0.7946618        1        87         1.1487594        3
    19         0.9387061        1        88         1.2319413        3
    20         0.9832395        1        89         1.4462877        3
    21         1.0442188        1        90         1.7871872        3
    22         1.1059037        1        91         2.0031972        3
    23         1.3582464        1        92         2.1509823        3
    24         1.3906193        1        93         2.2503559        3
    25         1.4635826        1        94         2.4123300        3
    26         1.7083561        1        95         2.4596783        3
    27         2.1071752        1        96         2.4620096        3
    28         2.3183127        1        97         2.6380543        3
    29         2.4009633        1        98         3.1447344        3
    30         2.4624284        1        99         3.2280245        3
    31         2.5243764        1       100         3.8683452        3
    32         2.6199800        1       101         4.1515026        3
    33         2.8190709        1       102         4.4685111        3
    34         2.8765839        1       103         4.8178851        3
    35         3.8575706        1       104         5.1140332        3
    36         3.9673631        1       105         5.5498538        3
    37         4.7283738        1       106         5.6739966        3
    38         4.8233144        1       107         6.2416812        3
    39         5.0338596        1       108         6.6811760        3
    40         5.2146500        1       109         6.6962752        3
    41         5.4488545        1       110         7.1072327        3
    42         6.2381460        1       111         7.3015245        3
    43         6.6473936        1       112         7.3849124        3
    44         6.9154472        1       113         7.9049463        3
    45         7.2183468        1       114         8.2112027        3
    46         7.3574000        1       115        14.8316370        3
    47         7.6348268        1       116        -0.0447765        4
    48         7.7860815        1       117         0.2102020        4
    49         8.1141228        1       118         0.2689051        4
    50        13.6470896        1       119         0.7167576        4
    51         0.1415515        2       120         0.8643928        4
    52         0.3679618        2       121         0.9908940        4
    53         0.6630243        2       122         1.0928371        4
    54         0.7030697        2       123         1.2017789        4
    55         0.9375834        2       124         1.5381037        4
    56         0.9811004        2       125         2.2276694        4
    57         1.3353050        2       126         2.3038742        4
    58         1.4858528        2       127         2.5170133        4
    59         2.1709438        2       128         2.7119756        4
    60         2.2350391        2       129         2.8305299        4
    61         2.3163120        2       130         4.0798921        4
    62         2.5006469        2       131         4.2272268        4
    63         2.7775957        2       132         4.3593803        4
    64         4.1289608        2       133         5.2378115        4
    65         4.3641178        2       134         6.7039662        4
    66         4.4066766        2       135         6.7482483        4
    67         5.2970232        2       136         7.0956684        4
    68         6.5721079        2       137         7.1537290        4
    69         6.7619455        2       138         7.2579757        4
------------------------------------------------------------------------
  -20.7049452755311       -1.51030165155861      -0.816224578114986     
 -0.632547100066403      -0.696331299300711       -20.7049917535645     
  -1.40950240525007      -0.745540618534704      -0.629726946154737     
 -0.654986884848374       3.642240834539182E-002  0.159237252378925     
  0.161860347472770       0.196256556639111       0.276879350792727     
  0.442155090933770       0.466252520760783       0.642533624692182     
  0.741050545164254       0.789714892060586       0.908814171629554     
  0.971791568176929        1.01537615441980        1.09301938037165     
   1.33240942016235        1.37786449596214        1.45519876074998     
   1.68667651155256        2.07366504604694        2.27541393159958     
   2.38902034439556        2.42902310598987        2.50440560010641     
   2.60681275243284        2.78685652148324        2.85191244966221     
   3.84734719201323        3.93917277773328        4.71034262801859     
   4.82042327629112        5.00539525968009        5.19532422649433     
   5.39568826630482        6.19904093707584        6.60116536760330     
   6.84536511231200        7.15380539965110        7.31748281791091     
   7.59580476215914        7.71765818702577        8.06304201340553     
   13.6081460685406       0.127101299384820       0.343731258484794     
  0.659199939115864       0.699524981580556       0.893371817211328     
  0.959383115036444        1.31978825169352        1.48137986440073     
   2.11511344013778        2.21660205920120        2.28056072015314     
   2.49113739772666        2.74370259601810        4.05393779967384     
   4.36071747145756        4.39643431844716        5.26451084007874     
   6.52489041912581        6.70002803447211        7.01358988366790     
   7.13358760104001        7.24629190373892       5.092315149659420E-002
  0.113440199650095       0.195892018604702       0.272073809957362     
  0.306915573546159       0.381581251012421       0.478884562318101     
  0.547569370951746       0.739669619898531       0.831271856492975     
  0.891561089055039       0.931677176660405        1.05757707107894     
   1.14608436781847        1.23144468787151        1.41773221226783     
   1.77742115245173        1.97476187223591        2.11138383358537     
   2.19664904459381        2.38947788252203        2.43308887267664     
   2.44496343949282        2.61269404484784        3.11241377781486     
   3.20071480518151        3.86891497317843        4.09033951418107     
   4.46912984402691        4.79104277903166        5.09371722230556     
   5.54569819459808        5.63653866009112        6.20762897213561     
   6.62676194903975        6.64441351557128        7.05780089349900     
   7.20795545311109        7.33342492725628        7.87023445895860     
   8.16308326511641        14.7914016533201       0.194400883953532     
  0.271915476670013       0.718887735831157       0.827729152211848     
  0.967044738128222        1.06494678308045        1.19763397396857     
   1.53185726584481        2.14646555531396        2.26678252915365     
   2.50423396006477        2.69034293028042        2.80657358087214     
   4.02812301127296        4.19440259227143        4.36459825231383     
   5.20960590821882        6.66053750454992        6.68685976279104     
   6.98380536372159        7.10065647628316        7.18830624876719     
  -20.6498124253766       -1.34355612609667      -0.646143545208463     
 -0.443503504029675      -0.365456382062867       -20.6497377423251     
  -1.19742991818811      -0.701429623649659       3.579549729492231E-002
  0.161582172116330       0.163444707360670       0.200357389952372     
  0.273257749720243       0.469347366951210       0.477120979179964     
  0.643829528415925       0.759144149799060       0.794661830586100     
  0.938706124351287       0.983239529918968        1.04421879269353     
   1.10590366358918        1.35824641428206        1.39061928528085     
   1.46358262532913        1.70835609022140        2.10717522348597     
   2.31831268292618        2.40096326272824        2.46242844075221     
   2.52437637673016        2.61997998274291        2.81907086635955     
   2.87658387173462        3.85757063663746        3.96736307239742     
   4.72837383655840        4.82331437422207        5.03385956919211     
   5.21464998786659        5.44885449809086        6.23814598813563     
   6.64739358721258        6.91544715308556        7.21834683052017     
   7.35739995970872        7.63482681959930        7.78608152298015     
   8.11412281522771        13.6470896486553       0.141551466874505     
  0.367961797660608       0.663024317341672       0.703069712122439     
  0.937583372798725       0.981100435336322        1.33530496167900     
   1.48585281501425        2.17094375503353        2.23503906086067     
   2.31631203416229        2.50064691351083        2.77759569902689     
   4.12896076908147        4.36411780022920        4.40667664065053     
   5.29702324232632        6.57210790894958        6.76194547617343     
   7.10572518068902        7.17308739804660        7.34009426178865     
 -8.990212280945790E-003  5.563760208026540E-002  0.120426293982050     
  0.211291714430403       0.272340755836053       0.310711216686834     
  0.381053860088671       0.483727226700574       0.543989785310624     
  0.761206460789842       0.850499637293617       0.894603414665608     
  0.952066001911938        1.06186568869710        1.14875937240444     
   1.23194132862014        1.44628774140101        1.78718723308077     
   2.00319722505946        2.15098229017786        2.25035589458899     
   2.41233000316856        2.45967832677375        2.46200960613563     
   2.63805427804636        3.14473443277597        3.22802454515851     
   3.86834519870040        4.15150259810848        4.46851113392063     
   4.81788510866066        5.11403321102738        5.54985378678744     
   5.67399660058492        6.24168117020741        6.68117595190470     
   6.69627524646793        7.10723270403660        7.30152452785616     
   7.38491244003771        7.90494634870303        8.21120271097180     
   14.8316370037100      -4.477650780450784E-002  0.210202013360158     
[...]
 ======================================================================
 Norm of residual vector:     0.31105573
 CPU time [min]:  1953.078                   Wall time [min]:   288.844
 
 Iteration  3  CI energy:  -151.27046354  Energy decrease:   0.0000E+00
 ======================================================================
 Norm of residual vector:     0.14669013
 CPU time [min]:  2004.931                   Wall time [min]:   296.646
 
 Iteration  4  CI energy:  -151.27046354  Energy decrease:   0.0000E+00
 ======================================================================
 Norm of residual vector:     0.07175977
 CPU time [min]:  2057.050                   Wall time [min]:   304.501
 
 Iteration  5  CI energy:  -151.27046354  Energy decrease:   0.0000E+00
 ======================================================================
 Norm of residual vector:     0.03581813
 CPU time [min]:  2110.285                   Wall time [min]:   312.539
 
 Iteration  6  CI energy:  -151.27046354  Energy decrease:   0.0000E+00
 ======================================================================
 Norm of residual vector:     0.02274916
 CPU time [min]:  2163.678                   Wall time [min]:   320.642
 
 Iteration  7  CI energy:  -151.27046354  Energy decrease:   0.0000E+00
 ======================================================================
 Norm of residual vector:     0.01332473
 CPU time [min]:  2217.371                   Wall time [min]:   328.793
 
 Iteration  8  CI energy:  -151.27046354  Energy decrease:   0.0000E+00
 ======================================================================
 Norm of residual vector:     0.00895043
 CPU time [min]:  2270.551                   Wall time [min]:   336.902
 
 Iteration  9  CI energy:  -151.27046354  Energy decrease:   0.0000E+00
 ======================================================================
 Norm of residual vector:     0.00433778
 CPU time [min]:  2324.032                   Wall time [min]:   345.062
 
 Iteration 10  CI energy:  -151.27046354  Energy decrease:   0.0000E+00
 ======================================================================
 Norm of residual vector:     0.00239938
 CPU time [min]:  2377.664                   Wall time [min]:   353.294
 
 Iteration 11  CI energy:  -151.27046354  Energy decrease:   0.0000E+00
 ======================================================================
 Norm of residual vector:     0.00107754
 CPU time [min]:  2432.107                   Wall time [min]:   361.609
 
 Iteration 12  CI energy:  -151.27046354  Energy decrease:   0.0000E+00
 ======================================================================
 Norm of residual vector:     0.00046722
 CPU time [min]:  2487.273                   Wall time [min]:   370.079
 
 Iteration 13  CI energy:  -151.27046354  Energy decrease:   0.0000E+00
 ======================================================================
 Norm of residual vector:     0.00021798
 CPU time [min]:  2544.079                   Wall time [min]:   378.854
 
 Iteration 14  CI energy:  -151.27046354  Energy decrease:   0.0000E+00
 ======================================================================
 Norm of residual vector:     0.00009745
 CPU time [min]:  2601.201                   Wall time [min]:   387.745
 
 Iteration 15  CI energy:  -151.27046354  Energy decrease:   0.0000E+00
 ======================================================================
 Norm of residual vector:     0.00004255
 CPU time [min]:  2660.163                   Wall time [min]:   397.310
 
 Iteration 16  CI energy:  -151.27046354  Energy decrease:   0.0000E+00
 ======================================================================
 Norm of residual vector:     0.00002018
 CPU time [min]:  2718.037                   Wall time [min]:   406.326
 
 Iteration 17  CI energy:  -151.27046354  Energy decrease:   0.0000E+00
 ======================================================================
 Norm of residual vector:     0.00000957
 CPU time [min]:  2776.650                   Wall time [min]:   415.670
 
 Iteration 18  CI energy:  -151.27046354  Energy decrease:   0.0000E+00
 ======================================================================
 Norm of residual vector:     0.00000448
 CPU time [min]:  2840.371                   Wall time [min]:   426.306
 
 Iteration 19  CI energy:  -151.27046354  Energy decrease:   0.0000E+00
 ======================================================================
 Norm of residual vector:     0.00000202
 CPU time [min]:  2904.773                   Wall time [min]:   436.912
 
 Iteration 20  CI energy:  -151.27046354  Energy decrease:   0.0000E+00
 ======================================================================
 Norm of residual vector:     0.00000088
 CPU time [min]:  2964.642                   Wall time [min]:   446.247
 
 Iteration 21  CI energy:  -151.27046354  Energy decrease:   0.0000E+00
 ======================================================================
 Norm of residual vector:     0.00000039
 CPU time [min]:  3024.776                   Wall time [min]:   456.130
 
 Iteration 22  CI energy:  -151.27046354  Energy decrease:   0.0000E+00
 ======================================================================
 Norm of residual vector:     0.00000018
 CPU time [min]:  3084.918                   Wall time [min]:   465.951
 
 Iteration 23  CI energy:  -151.27046354  Energy decrease:   0.0000E+00
 ======================================================================
 Norm of residual vector:     0.00000009
 CPU time [min]:  3146.850                   Wall time [min]:   476.138
 
 Iteration 24  CI energy:  -151.27046354  Energy decrease:   0.0000E+00
 ======================================================================
 Norm of residual vector:     0.00000004
 CPU time [min]:  3206.636                   Wall time [min]:   485.764
 
 Iteration 25  CI energy:  -151.27046354  Energy decrease:   0.0000E+00
 ======================================================================
 Norm of residual vector:     0.00000002
 CPU time [min]:  3267.126                   Wall time [min]:   495.626
 
 Iteration 26  CI energy:  -151.27046354  Energy decrease:   0.0000E+00
 ======================================================================
 Norm of residual vector:     0.00000001
 CPU time [min]:  3332.740                   Wall time [min]:   506.661
 
 Iteration 27  CI energy:  -151.27046354  Energy decrease:   0.0000E+00
 ======================================================================
 Norm of residual vector:     3.6072E-09
 CPU time [min]:  3393.806                   Wall time [min]:   517.118
 
 Iteration 28  CI energy:  -151.27046354  Energy decrease:   0.0000E+00
 ======================================================================
 Norm of residual vector:     1.4975E-09
 CPU time [min]:  3455.680                   Wall time [min]:   527.413
 
 Iteration 29  CI energy:  -151.27046354  Energy decrease:   0.0000E+00
 ======================================================================
 Norm of residual vector:     6.3374E-10
 CPU time [min]:  3516.822                   Wall time [min]:   537.994
 
 Iteration 30  CI energy:  -151.27046354  Energy decrease:   0.0000E+00
 ======================================================================
 Norm of residual vector:     2.7367E-10
 CPU time [min]:  3580.562                   Wall time [min]:   549.113
 
 Iteration 31  CI energy:  -151.27046354  Energy decrease:   0.0000E+00
 ======================================================================
 Norm of residual vector:     1.2053E-10
 CPU time [min]:  3645.648                   Wall time [min]:   560.794
 
 Iteration 32  CI energy:  -151.27046354  Energy decrease:   0.0000E+00
 ======================================================================
 Norm of residual vector:     5.1059E-11
 CPU time [min]:  3711.557                   Wall time [min]:   572.098
 
 Iteration 33  CI energy:  -151.27046354  Energy decrease:   0.0000E+00
 ======================================================================
 Norm of residual vector:     2.2518E-11
 CPU time [min]:  3776.283                   Wall time [min]:   583.182
 
 Iteration 34  CI energy:  -151.27046354  Energy decrease:   0.0000E+00
 ======================================================================
 Norm of residual vector:     9.3882E-12
 CPU time [min]:  3841.313                   Wall time [min]:   594.412
 
 Iteration 35  CI energy:  -151.27046354  Energy decrease:   0.0000E+00
 ======================================================================
 Norm of residual vector:     3.9017E-12
 CPU time [min]:  3906.337                   Wall time [min]:   605.701
 
 Iteration 36  CI energy:  -151.27046354  Energy decrease:   0.0000E+00
 ======================================================================
 Norm of residual vector:     1.6761E-12
 CPU time [min]:  3971.603                   Wall time [min]:   617.145
 
 Iteration 37  CI energy:  -151.27046354  Energy decrease:   0.0000E+00
 ======================================================================
 Norm of residual vector:     7.1798E-13
 CPU time [min]:  4023.532                   Wall time [min]:   625.007
 
 Iteration 38  CI energy:  -151.27046354  Energy decrease:   0.0000E+00
 ======================================================================
 
 Iteration has converged in 38 steps.
 
 Final results:
 Total CCSDT energy [au]:           -151.270463544782
 
 
 
 Calculating reduced density-matrix for root 1...
 
 Total energy from RDM [au]:        -151.270463544782
 
 ************************ 2021-02-05 02:56:47 *************************
                      Normal termination of mrcc.
 **********************************************************************
--executable dmrcc finished with status     0 in    39302.57 seconds (walltime).
 --invoking executable--
/apps/eb/cfour/2.1-iompi-2018a-serial/bin/xdens
 @GETMEM-I,  Allocated   38146 MB of main memory.
  CCSDT density and intermediates are calculated.
  The perturbed orbitals are chosen canonical.
   Frozen core orbitals in analytic derivative calculation
  dropped orbitals                     1                     0
                     1                     0                     0
                     0                     0                     0
 ITERM.tmp does not exsit!
 skip reading
  @S2EXPECT-I, S**2 calculated as expectation value.
  @S2EXPECT-I, Contributions to <S**2> : 
  From one particle density : 
    D(ai)   :   -0.1347426068
    D(ij)   :    0.3544401138
    D(ab)   :   -0.1687031749
  From two particle density : 
    G(abcd) :   -0.0542611190
    G(abci) :    0.0241345891
    G(abij) :   -0.0849677279
    G(aibj) :   -0.0333586946
    G(ijka) :    0.0235015219
    G(ijkl) :   -0.0548293742
              Reference state <S**2>        :    2.1297385727.
              Total one particle correction :    0.0509943321.
              Total two particle correction :   -0.1797808047.
              Expectation value of <S**2>   :    2.0009521000.
  The iterative expansion of D(ai) converged after  20 iterations.
  ----------------------------------------------------------------------
                 Natural orbital occupation numbers
  ----------------------------------------------------------------------
                            Alpha spin
  ----------------------------------------------------------------------
  1.00000  1.00000  0.99200  0.99107  0.98396  0.98332  0.98182  0.98008
  0.97772  0.97639  0.01981  0.01742  0.01330  0.00739  0.00703  0.00686
  0.00555  0.00502  0.00414  0.00413  0.00382  0.00378  0.00371  0.00368
  0.00357  0.00354  0.00344  0.00240  0.00090  0.00085  0.00081  0.00077
  0.00061  0.00061  0.00053  0.00051  0.00050  0.00049  0.00044  0.00040
  0.00038  0.00036  0.00036  0.00035  0.00035  0.00033  0.00032  0.00032
  0.00030  0.00030  0.00029  0.00029  0.00029  0.00028  0.00027  0.00027
  0.00025  0.00023  0.00019  0.00012  0.00011  0.00010  0.00010  0.00009
  0.00008  0.00008  0.00007  0.00006  0.00006  0.00006  0.00005  0.00005
  0.00005  0.00004  0.00004  0.00004  0.00004  0.00004  0.00004  0.00003
  0.00003  0.00003  0.00003  0.00003  0.00003  0.00002  0.00002  0.00002
  0.00002  0.00002  0.00002  0.00002  0.00002  0.00002  0.00002  0.00002
  0.00002  0.00002  0.00001  0.00001  0.00001  0.00001  0.00001  0.00001
  0.00001  0.00001  0.00001  0.00001  0.00001  0.00001  0.00000  0.00000
  0.00000  0.00000  0.00000  0.00000  0.00000  0.00000  0.00000  0.00000
  0.00000  0.00000  0.00000  0.00000  0.00000  0.00000  0.00000  0.00000
  0.00000  0.00000  0.00000  0.00000  0.00000  0.00000  0.00000  0.00000
  0.00000  0.00000
  Trace of density matrix :  10.0000000000.
  ----------------------------------------------------------------------
                            Beta spin
  ----------------------------------------------------------------------
  1.00001  1.00001  0.98706  0.98381  0.97959  0.97622  0.84080  0.83704
  0.15178  0.15090  0.01742  0.01114  0.00733  0.00624  0.00513  0.00478
  0.00344  0.00339  0.00315  0.00271  0.00270  0.00260  0.00259  0.00219
  0.00219  0.00191  0.00154  0.00142  0.00078  0.00069  0.00063  0.00054
  0.00050  0.00041  0.00041  0.00038  0.00035  0.00029  0.00028  0.00027
  0.00027  0.00027  0.00024  0.00024  0.00023  0.00021  0.00021  0.00021
  0.00021  0.00020  0.00020  0.00019  0.00019  0.00016  0.00016  0.00016
  0.00015  0.00015  0.00012  0.00011  0.00009  0.00008  0.00008  0.00007
  0.00007  0.00007  0.00006  0.00006  0.00005  0.00005  0.00005  0.00005
  0.00004  0.00004  0.00004  0.00003  0.00003  0.00003  0.00003  0.00003
  0.00002  0.00002  0.00002  0.00002  0.00002  0.00002  0.00002  0.00002
  0.00002  0.00002  0.00002  0.00002  0.00002  0.00002  0.00002  0.00002
  0.00001  0.00001  0.00001  0.00001  0.00001  0.00001  0.00001  0.00001
  0.00001  0.00001  0.00001  0.00001  0.00000  0.00000  0.00000  0.00000
  0.00000  0.00000  0.00000  0.00000  0.00000  0.00000  0.00000  0.00000
  0.00000  0.00000  0.00000  0.00000  0.00000  0.00000  0.00000  0.00000
  0.00000  0.00000  0.00000  0.00000  0.00000  0.00000  0.00000  0.00000
  0.00000  0.00000
  Trace of density matrix :   8.0000000000.
  ----------------------------------------------------------------------
  Density calculation successfully completed.
 @CHECKOUT-I, Total execution time (CPU/WALL):      187.92/     190.94 seconds.
--executable xdens finished with status     0 in      190.97 seconds (walltime).
 --invoking executable--
/apps/eb/cfour/2.1-iompi-2018a-serial/bin/xanti
 @GETMEM-I,  Allocated   38146 MB of main memory.
 CCSDT MO gammas will be sorted to Mulliken order.
 @CHECKOUT-I, Total execution time (CPU/WALL):        3.25/       3.25 seconds.
--executable xanti finished with status     0 in        3.28 seconds (walltime).
 --invoking executable--
/apps/eb/cfour/2.1-iompi-2018a-serial/bin/xbcktrn
 @GETMEM-I,  Allocated   38146 MB of main memory.
 CCSDT MO gammas will be transformed to the AO basis.
 @CHECKOUT-I, Total execution time (CPU/WALL):        3.04/       3.04 seconds.
--executable xbcktrn finished with status     0 in        3.08 seconds (walltime).
 --invoking executable--
/apps/eb/cfour/2.1-iompi-2018a-serial/bin/xvdint
 @GETMEM-I,  Allocated   38146 MB of main memory.
 One- and two-electron integral derivatives are calculated
 for UHF-CC/MBPT gradients and dipole moments.
 Spherical gaussians are used.

                     Kinetic energy integral gradient
                     --------------------------------

                         O #1 x     0.9208652489
                         O #1 y    -0.7445376595
                         H #2 x    -0.7567204822
                         H #2 y     0.8633301848


 O #1 1     0.4604326244           -0.3722688298            0.0000000000
 O #1 2    -0.4604326244            0.3722688298            0.0000000000
 H #2 1    -0.3783602411            0.4316650924            0.0000000000
 H #2 2     0.3783602411           -0.4316650924            0.0000000000



                   Nuclear attraction integral gradient
                   ------------------------------------

                         O #1 x   -26.9945048487
                         O #1 y     6.5891233889
                         H #2 x     4.6632465665
                         H #2 y    -9.7658494383


 O #1 1   -13.4972524244            3.2945616944            0.0000000000
 O #1 2    13.4972524244           -3.2945616944            0.0000000000
 H #2 1     2.3316232833           -4.8829247191            0.0000000000
 H #2 2    -2.3316232833            4.8829247191            0.0000000000



                      Reorthonormalization gradient
                      -----------------------------

                         O #1 x     0.3285404182
                         O #1 y    -0.3265725686
                         H #2 x    -0.2119548064
                         H #2 y     0.4215440668


 O #1 1     0.1642702091           -0.1632862843            0.0000000000
 O #1 2    -0.1642702091            0.1632862843            0.0000000000
 H #2 1    -0.1059774032            0.2107720334            0.0000000000
 H #2 2     0.1059774032           -0.2107720334            0.0000000000



                Electronic contributions to dipole moment
                -----------------------------------------

                     All components zero by symmetry

  Conversion factor used: 1 a.u. =   2.54174691 Debye 


 Evaluation of 1e integral derivatives required    0.05 seconds.
 Evaluation of 2el integral derivatives

                      Two-electron integral gradient
                      ------------------------------

                         O #1 x    12.3451478826
                         O #1 y    -3.1098919555
                         H #2 x    -2.1004564096
                         H #2 y     4.3434691570


 O #1 1     6.1725739413           -1.5549459777            0.0000000000
 O #1 2    -6.1725739413            1.5549459777            0.0000000000
 H #2 1    -1.0502282048            2.1717345785            0.0000000000
 H #2 2     1.0502282048           -2.1717345785            0.0000000000


 Evaluation of 2e integral derivatives required    8.82 seconds.

                            Molecular gradient
                            ------------------

                         O #1 x     0.0448129581
                         O #1 y    -0.0086137532
                         H #2 x     0.0236166414
                         H #2 y     0.0734076255


 O #1 1     0.0224064790           -0.0043068766            0.0000000000
 O #1 2    -0.0224064790            0.0043068766            0.0000000000
 H #2 1     0.0118083207            0.0367038128            0.0000000000
 H #2 2    -0.0118083207           -0.0367038128            0.0000000000


  Molecular gradient norm 0.896E-01

                           Total dipole moment
                           -------------------

                     All components zero by symmetry

  Conversion factor used: 1 a.u. =   2.54174691 Debye 


 @CHECKOUT-I, Total execution time (CPU/WALL):        8.87/       9.34 seconds.
--executable xvdint finished with status     0 in        9.40 seconds (walltime).
 --invoking executable--
/apps/eb/cfour/2.1-iompi-2018a-serial/bin/xjoda
  igrd and ihes are                      0                    -1
  gradient from JOBARC 
   0.022406479043357  -0.004306876577505   0.000000000000000
  -0.022406479043357   0.004306876577505   0.000000000000000
   0.011808320706640   0.036703812753714   0.000000000000000
  -0.011808320706640  -0.036703812753714   0.000000000000000
 
 @CHECKOUT-I, Total execution time (CPU/WALL):        0.03/       0.04 seconds.
--executable xjoda finished with status     0 in        0.06 seconds (walltime).
  The final electronic energy is      -151.270463544782388 a.u. 
  This computation required                        39619.14 seconds (walltime).
