
    -----------------------------------------------------------------------
          Psi4: An Open-Source Ab Initio Electronic Structure Package
                               Psi4 1.3.2 release

                         Git: Rev {HEAD} ecbda83 


    R. M. Parrish, L. A. Burns, D. G. A. Smith, A. C. Simmonett,
    A. E. DePrince III, E. G. Hohenstein, U. Bozkaya, A. Yu. Sokolov,
    R. Di Remigio, R. M. Richard, J. F. Gonthier, A. M. James,
    H. R. McAlexander, A. Kumar, M. Saitow, X. Wang, B. P. Pritchard,
    P. Verma, H. F. Schaefer III, K. Patkowski, R. A. King, E. F. Valeev,
    F. A. Evangelista, J. M. Turney, T. D. Crawford, and C. D. Sherrill,
    J. Chem. Theory Comput. 13(7) pp 3185--3197 (2017).
    (doi: 10.1021/acs.jctc.7b00174)


                         Additional Contributions by
    P. Kraus, H. Kruse, M. H. Lechner, M. C. Schieber, R. A. Shaw,
    A. Alenaizan, R. Galvelis, Z. L. Glick, S. Lehtola, and J. P. Misiewicz

    -----------------------------------------------------------------------


    Psi4 started on: Wednesday, 10 March 2021 10:57AM

    Process ID: 71781
    Host:       c2-13.compute.lan
    PSIDATADIR: /apps/gb/PSI4/1.3.2/share/psi4
    Memory:     500.0 MiB
    Threads:    12
    
  ==> Input File <==

--------------------------------------------------------------------------
memory 4 GB

molecule  {
0 3
O   -1.504262781504   -0.001191536185    0.000000000000
H   -0.554379148204    0.154373955530    0.000000000000
H   -1.896705128998    0.879167051448    0.000000000000
O    1.658703373994   -0.063930943268    0.000000000000
}
set {
basis aug-cc-pvtz
reference uhf
e_convergence 10
scf_type pk
freeze_core true
}

set ccenergy {
e_convergence 10
r_convergence 10
}

e = energy('ccsd(t)')

print_out('Stephenergy {}'.format(e))

--------------------------------------------------------------------------

  Memory set to   3.725 GiB by Python driver.

*** tstart() called on c2-13.compute.lan
*** at Wed Mar 10 10:57:42 2021

   => Loading Basis Set <=

    Name: AUG-CC-PVTZ
    Role: ORBITAL
    Keyword: BASIS
    atoms 1, 4 entry O          line   327 file /apps/gb/PSI4/1.3.2/share/psi4/basis/aug-cc-pvtz.gbs 
    atoms 2-3  entry H          line    36 file /apps/gb/PSI4/1.3.2/share/psi4/basis/aug-cc-pvtz.gbs 


         ---------------------------------------------------------
                                   SCF
               by Justin Turney, Rob Parrish, Andy Simmonett
                          and Daniel G. A. Smith
                              UHF Reference
                       12 Threads,   3814 MiB Core
         ---------------------------------------------------------

  ==> Geometry <==

    Molecular point group: cs
    Full point group: Cs

    Geometry (in Angstrom), charge = 0, multiplicity = 3:

       Center              X                  Y                   Z               Mass       
    ------------   -----------------  -----------------  -----------------  -----------------
         O           -1.504262781504    -0.001191536185     0.000000000000    15.994914619570
         H           -0.554379148204     0.154373955530     0.000000000000     1.007825032230
         H           -1.896705128998     0.879167051448     0.000000000000     1.007825032230
         O            1.658703373994    -0.063930943268     0.000000000000    15.994914619570

  Running in cs symmetry.

  Rotational constants: A =     23.18817  B =      0.20003  C =      0.19832 [cm^-1]
  Rotational constants: A = 695163.87309  B =   5996.64623  C =   5945.36016 [MHz]
  Nuclear repulsion =   22.897100247359305

  Charge       = 0
  Multiplicity = 3
  Electrons    = 18
  Nalpha       = 10
  Nbeta        = 8

  ==> Algorithm <==

  SCF Algorithm Type is PK.
  DIIS enabled.
  MOM disabled.
  Fractional occupation disabled.
  Guess Type is SAD.
  Energy threshold   = 1.00e-10
  Density threshold  = 1.00e-08
  Integral threshold = 0.00e+00

  ==> Primary Basis <==

  Basis Set: AUG-CC-PVTZ
    Blend: AUG-CC-PVTZ
    Number of shells: 46
    Number of basis function: 138
    Number of Cartesian functions: 160
    Spherical Harmonics?: true
    Max angular momentum: 3

  ==> Pre-Iterations <==

   -------------------------------------------------------
    Irrep   Nso     Nmo     Nalpha   Nbeta   Ndocc  Nsocc
   -------------------------------------------------------
     A'        92      92       0       0       0       0
     A"        46      46       0       0       0       0
   -------------------------------------------------------
    Total     138     138      10       8       8       2
   -------------------------------------------------------

  ==> Integral Setup <==

  Using in-core PK algorithm.
   Calculation information:
      Number of atoms:                   4
      Number of AO shells:              46
      Number of primitives:             82
      Number of atomic orbitals:       160
      Number of basis functions:       138

      Integral cutoff                 1.00e-12
      Number of threads:                12

  Performing in-core PK
  Using 91996872 doubles for integral storage.
  We computed 901803 shell quartets total.
  Whereas there are 584821 unique shell quartets.
    54.20 percent of shell quartets recomputed by reordering.

  ==> DiskJK: Disk-Based J/K Matrices <==

    J tasked:                  Yes
    K tasked:                  Yes
    wK tasked:                  No
    Memory [MiB]:             2861
    Schwarz Cutoff:          1E-12

    OpenMP threads:             12

  Minimum eigenvalue in the overlap matrix is 2.9552690891E-04.
  Using Symmetric Orthogonalization.

  SCF Guess: Superposition of Atomic Densities via on-the-fly atomic UHF.

  ==> Iterations <==

                        Total Energy        Delta E     RMS |[F,P]|

   @UHF iter SAD:  -149.39944100574871   -1.49399e+02   0.00000e+00 
   @UHF iter   1:  -150.76366350563967   -1.36422e+00   5.04814e-03 DIIS
   @UHF iter   2:  -150.83784228237005   -7.41788e-02   3.28102e-03 DIIS
   @UHF iter   3:  -150.87305306379787   -3.52108e-02   3.93390e-04 DIIS
   @UHF iter   4:  -150.87417024780981   -1.11718e-03   1.30878e-04 DIIS
   @UHF iter   5:  -150.87429777814427   -1.27530e-04   5.12498e-05 DIIS
   @UHF iter   6:  -150.87433216424910   -3.43861e-05   1.54372e-05 DIIS
   @UHF iter   7:  -150.87433600267178   -3.83842e-06   5.59075e-06 DIIS
   @UHF iter   8:  -150.87433686935668   -8.66685e-07   4.44466e-06 DIIS
   @UHF iter   9:  -150.87433760840148   -7.39045e-07   4.32857e-06 DIIS
   @UHF iter  10:  -150.87433874012112   -1.13172e-06   4.27069e-06 DIIS
   @UHF iter  11:  -150.87434525016258   -6.51004e-06   3.98825e-06 DIIS
   @UHF iter  12:  -150.87436223363545   -1.69835e-05   3.73393e-06 DIIS
   @UHF iter  13:  -150.87436401660869   -1.78297e-06   3.27132e-06 DIIS
   @UHF iter  14:  -150.87438112555066   -1.71089e-05   8.17194e-06 DIIS
   @UHF iter  15:  -150.87438106683470    5.87160e-08   6.09506e-06 DIIS
   @UHF iter  16:  -150.87438274667062   -1.67984e-06   6.14317e-06 DIIS
   @UHF iter  17:  -150.87438295442013   -2.07750e-07   2.63409e-06 DIIS
   @UHF iter  18:  -150.87438303084690   -7.64268e-08   1.15000e-06 DIIS
   @UHF iter  19:  -150.87438304178619   -1.09393e-08   1.10356e-07 DIIS
   @UHF iter  20:  -150.87438304173114    5.50529e-11   1.56783e-07 DIIS
   @UHF iter  21:  -150.87438304186443   -1.33298e-10   5.04153e-09 DIIS
   @UHF iter  22:  -150.87438304186605   -1.62004e-12   9.62639e-10 DIIS
  Energy and wave function converged.


  ==> Post-Iterations <==

   @Spin Contamination Metric:   9.372971352E-03
   @S^2 Expected:                2.000000000E+00
   @S^2 Observed:                2.009372971E+00
   @S   Expected:                1.000000000E+00
   @S   Observed:                1.000000000E+00

    Orbital Energies [Eh]
    ---------------------

    Alpha Occupied:                                                       

       1Ap   -20.733039     2Ap   -20.558868     3Ap    -1.442369  
       4Ap    -1.342225     5Ap    -0.733135     1App   -0.732765  
       6Ap    -0.710073     7Ap    -0.634396     8Ap    -0.574363  
       2App   -0.501754  

    Alpha Virtual:                                                        

       9Ap     0.034197    10Ap     0.053473    11Ap     0.128196  
       3App    0.132928    12Ap     0.148136    13Ap     0.160704  
      14Ap     0.183879     4App    0.186830    15Ap     0.214126  
      16Ap     0.242000    17Ap     0.264193     5App    0.286355  
      18Ap     0.303938     6App    0.320807    19Ap     0.364473  
      20Ap     0.406042    21Ap     0.460008    22Ap     0.568639  
       7App    0.602607    23Ap     0.608708    24Ap     0.627305  
      25Ap     0.681435     8App    0.709477    26Ap     0.714869  
       9App    0.736676    10App    0.748612    27Ap     0.751064  
      28Ap     0.811428    11App    0.826013    29Ap     0.836720  
      12App    0.890721    30Ap     0.891326    31Ap     0.923074  
      32Ap     0.944876    13App    0.947973    33Ap     0.951096  
      14App    0.971362    34Ap     0.979254    35Ap     1.042453  
      36Ap     1.135821    15App    1.153479    37Ap     1.169974  
      38Ap     1.185358    39Ap     1.260488    16App    1.294865  
      40Ap     1.316582    17App    1.526844    41Ap     1.588447  
      18App    1.598158    42Ap     1.714896    43Ap     1.809045  
      44Ap     1.841028    45Ap     1.976916    19App    1.977743  
      46Ap     1.977893    20App    2.013200    47Ap     2.017934  
      21App    2.048352    48Ap     2.060313    22App    2.122651  
      49Ap     2.152559    50Ap     2.175872    23App    2.212637  
      24App    2.302260    51Ap     2.311526    52Ap     2.338221  
      53Ap     2.414802    25App    2.441352    54Ap     2.457183  
      55Ap     2.491516    26App    2.526331    56Ap     2.629998  
      57Ap     2.710496    27App    2.727904    58Ap     2.736476  
      59Ap     2.859698    60Ap     2.934558    28App    2.942582  
      61Ap     3.692839    62Ap     3.891825    29App    4.034268  
      30App    4.062556    63Ap     4.074265    31App    4.177147  
      64Ap     4.209924    65Ap     4.262394    32App    4.304068  
      33App    4.390641    66Ap     4.409927    34App    4.428717  
      67Ap     4.444659    68Ap     4.600231    69Ap     4.775486  
      70Ap     4.953908    35App    5.153231    71Ap     5.166328  
      72Ap     5.298628    73Ap     5.386043    36App    5.521235  
      74Ap     5.692163    75Ap     6.185295    37App    6.312383  
      76Ap     6.312414    38App    6.375443    77Ap     6.378193  
      39App    6.518256    78Ap     6.520118    79Ap     6.560009  
      80Ap     6.637169    40App    6.735278    81Ap     6.814353  
      41App    6.820061    82Ap     6.916963    42App    6.936858  
      83Ap     6.960821    84Ap     7.050877    43App    7.147570  
      44App    7.270391    45App    7.322738    85Ap     7.325681  
      86Ap     7.363127    46App    7.435569    87Ap     7.645739  
      88Ap     7.947026    89Ap     7.955471    90Ap     8.802741  
      91Ap     9.513804    92Ap    16.278230  

    Beta Occupied:                                                        

       1Ap   -20.654254     2Ap   -20.558997     3Ap    -1.342798  
       4Ap    -1.099903     5Ap    -0.709265     6Ap    -0.579342  
       7Ap    -0.541160     1App   -0.501798  

    Beta Virtual:                                                         

       8Ap     0.034352     2App    0.049389     9Ap     0.049613  
      10Ap     0.055190    11Ap     0.143850    12Ap     0.152936  
       3App    0.161216    13Ap     0.177970    14Ap     0.207826  
      15Ap     0.225483     4App    0.227223    16Ap     0.250723  
      17Ap     0.265452     5App    0.286564    18Ap     0.306086  
       6App    0.324546    19Ap     0.368373    20Ap     0.416887  
      21Ap     0.461296    22Ap     0.572203    23Ap     0.628101  
       7App    0.635003    24Ap     0.640403    25Ap     0.686203  
      26Ap     0.715531     8App    0.721551     9App    0.739788  
      10App    0.750338    27Ap     0.767595    28Ap     0.817822  
      29Ap     0.867170    11App    0.868859    30Ap     0.920004  
      12App    0.941596    31Ap     0.941779    13App    0.950040  
      32Ap     0.952490    33Ap     0.970566    34Ap     1.017498  
      14App    1.020082    35Ap     1.044808    15App    1.156602  
      36Ap     1.163530    37Ap     1.173435    38Ap     1.216356  
      39Ap     1.263740    16App    1.305474    40Ap     1.325211  
      17App    1.527538    41Ap     1.590701    18App    1.599619  
      42Ap     1.741233    43Ap     1.814179    44Ap     1.851961  
      45Ap     1.984761    46Ap     2.015710    19App    2.015721  
      20App    2.053661    47Ap     2.065164    21App    2.170796  
      48Ap     2.175960    22App    2.179619    49Ap     2.193898  
      50Ap     2.244603    23App    2.249831    24App    2.305707  
      51Ap     2.317002    52Ap     2.360982    53Ap     2.419191  
      25App    2.444052    54Ap     2.458032    55Ap     2.497817  
      26App    2.534797    56Ap     2.637141    57Ap     2.727464  
      27App    2.729219    58Ap     2.739908    59Ap     2.861539  
      60Ap     2.938978    28App    2.943211    61Ap     3.693520  
      62Ap     3.894183    29App    4.036993    30App    4.145766  
      63Ap     4.194674    64Ap     4.243297    31App    4.262501  
      65Ap     4.274287    32App    4.304117    33App    4.390710  
      66Ap     4.413487    34App    4.429403    67Ap     4.488995  
      68Ap     4.602829    69Ap     4.777101    70Ap     4.955934  
      35App    5.153217    71Ap     5.166625    72Ap     5.298859  
      73Ap     5.387288    36App    5.521296    74Ap     5.692511  
      75Ap     6.186527    76Ap     6.421238    37App    6.421243  
      38App    6.450636    77Ap     6.453440    78Ap     6.535614  
      39App    6.572135    79Ap     6.600374    80Ap     6.682117  
      40App    6.741204    81Ap     6.918280    41App    7.005185  
      82Ap     7.006700    42App    7.046053    83Ap     7.068222  
      84Ap     7.130665    43App    7.150083    44App    7.270593  
      45App    7.323507    85Ap     7.325968    86Ap     7.363930  
      46App    7.435980    87Ap     7.646617    88Ap     7.948012  
      89Ap     7.955826    90Ap     8.804242    91Ap     9.588848  
      92Ap    16.278509  

    Final Occupation by Irrep:
             Ap   App 
    DOCC [     7,    1 ]
    SOCC [     1,    1 ]

  @UHF Final Energy:  -150.87438304186605

   => Energetics <=

    Nuclear Repulsion Energy =             22.8971002473593046
    One-Electron Energy =                -253.5924629760611992
    Two-Electron Energy =                  79.8209796868358410
    Total Energy =                       -150.8743830418660536

  UHF NO Occupations:
  HONO-2 :    7 Ap 1.9970282
  HONO-1 :    8 Ap 1.0000000
  HONO-0 :    2App 1.0000000
  LUNO+0 :    9 Ap 0.0029718
  LUNO+1 :   10 Ap 0.0017157
  LUNO+2 :   11 Ap 0.0000024
  LUNO+3 :   12 Ap 0.0000017


Computation Completed


Properties will be evaluated at   0.000000,   0.000000,   0.000000 [a0]

Properties computed using the SCF density matrix

  Nuclear Dipole Moment: [e a0]
     X:    -2.2971      Y:     0.9686      Z:     0.0000

  Electronic Dipole Moment: [e a0]
     X:     2.7585      Y:    -0.2940      Z:     0.0000

  Dipole Moment: [e a0]
     X:     0.4615      Y:     0.6746      Z:     0.0000     Total:     0.8173

  Dipole Moment: [D]
     X:     1.1729      Y:     1.7146      Z:     0.0000     Total:     2.0774


*** tstop() called on c2-13.compute.lan at Wed Mar 10 10:57:50 2021
Module time:
	user time   =      62.38 seconds =       1.04 minutes
	system time =       4.27 seconds =       0.07 minutes
	total time  =          8 seconds =       0.13 minutes
Total time:
	user time   =      62.38 seconds =       1.04 minutes
	system time =       4.27 seconds =       0.07 minutes
	total time  =          8 seconds =       0.13 minutes
 MINTS: Wrapper to libmints.
   by Justin Turney

   Calculation information:
      Number of threads:                12
      Number of atoms:                   4
      Number of AO shells:              46
      Number of SO shells:              46
      Number of primitives:             82
      Number of atomic orbitals:       160
      Number of basis functions:       138

      Number of irreps:                  2
      Integral cutoff                 0.00e+00
      Number of functions per irrep: [  92   46 ]

 OEINTS: Overlap, kinetic, potential, dipole, and quadrupole integrals
         stored in file 35.

      Computing two-electron integrals...done
      Computed 22912984 non-zero two-electron integrals.
        Stored in file 33.


*** tstart() called on c2-13.compute.lan
*** at Wed Mar 10 10:57:54 2021


	Wfn Parameters:
	--------------------
	Wavefunction         = CCSD_T
	Number of irreps     = 2
	Number of MOs        = 138
	Number of active MOs = 136
	AO-Basis             = NONE
	Semicanonical        = false
	Reference            = UHF
	Print Level          = 1

	IRREP	# MOs	# FZDC	# DOCC	# SOCC	# VIRT	# FZVR
	-----	-----	------	------	------	------	------
	 Ap	   92	    2	    5	    1	    84	    0
	 App	   46	    0	    1	    1	    44	    0
	Transforming integrals...
	IWL integrals will be deleted.
	(OO|OO)...
	Presorting SO-basis two-electron integrals.
	Sorting File: SO Ints (nn|nn) nbuckets = 1
	Transforming the one-electron integrals and constructing Fock matrices
	Starting AA/AB first half-transformation.
	Sorting AA/AB half-transformed integrals.
	Starting BB first half-transformation.
	Sorting BB half-transformed integrals.
	First half integral transformation complete.
	Starting AA second half-transformation.
	Starting AB second half-transformation.
	Starting BB second half-transformation.
	Two-electron integral transformation complete.
	(OO|OV)...
	Starting AA second half-transformation.
	Starting AB second half-transformation.
	Starting BB second half-transformation.
	Two-electron integral transformation complete.
	(OO|VV)...
	Starting AA second half-transformation.
	Starting AB second half-transformation.
	Starting BB second half-transformation.
	Two-electron integral transformation complete.
	(OV|OO)...
	Starting AA/AB first half-transformation.
	Sorting AA/AB half-transformed integrals.
	Starting BB first half-transformation.
	Sorting BB half-transformed integrals.
	First half integral transformation complete.
	Starting AA second half-transformation.
	Starting AB second half-transformation.
	Starting BB second half-transformation.
	Two-electron integral transformation complete.
	(OV|OV)...
	Starting AA second half-transformation.
	Starting AB second half-transformation.
	Starting BB second half-transformation.
	Two-electron integral transformation complete.
	(OV|VV)...
	Starting AA second half-transformation.
	Starting AB second half-transformation.
	Starting BB second half-transformation.
	Two-electron integral transformation complete.
	(VV|OO)...
	Starting AA/AB first half-transformation.
	Sorting AA/AB half-transformed integrals.
	Starting BB first half-transformation.
	Sorting BB half-transformed integrals.
	First half integral transformation complete.
	Starting AA second half-transformation.
	Starting AB second half-transformation.
	Starting BB second half-transformation.
	Two-electron integral transformation complete.
	(VV|OV)...
	Starting AA second half-transformation.
	Starting AB second half-transformation.
	Starting BB second half-transformation.
	Two-electron integral transformation complete.
	(VV|VV)...
	Starting AA second half-transformation.
	Starting AB second half-transformation.
	Starting BB second half-transformation.
	Two-electron integral transformation complete.
	Frozen core energy     =   -125.85576455271590

	Size of irrep 0 of <AB|CD> integrals:     19.643 (MW) /    157.141 (MB)
	Size of irrep 1 of <AB|CD> integrals:     13.660 (MW) /    109.283 (MB)
	Total:                                    33.303 (MW) /    266.424 (MB)

	Size of irrep 0 of <ab|cd> integrals:     20.794 (MW) /    166.349 (MB)
	Size of irrep 1 of <ab|cd> integrals:     14.631 (MW) /    117.045 (MB)
	Total:                                    35.424 (MW) /    283.394 (MB)

	Size of irrep 0 of <Ab|Cd> integrals:     83.174 (MW) /    665.395 (MB)
	Size of irrep 1 of <Ab|Cd> integrals:     56.550 (MW) /    452.403 (MB)
	Total:                                   139.725 (MW) /   1117.798 (MB)

	Size of irrep 0 of <IA|BC> integrals:      5.323 (MW) /     42.586 (MB)
	Size of irrep 1 of <IA|BC> integrals:      3.193 (MW) /     25.547 (MB)
	Total:                                     8.517 (MW) /     68.133 (MB)

	Size of irrep 0 of <ia|bc> integrals:      4.348 (MW) /     34.780 (MB)
	Size of irrep 1 of <ia|bc> integrals:      2.372 (MW) /     18.972 (MB)
	Total:                                     6.719 (MW) /     53.752 (MB)

	Size of irrep 0 of <Ia|Bc> integrals:      5.472 (MW) /     43.776 (MB)
	Size of irrep 1 of <Ia|Bc> integrals:      3.309 (MW) /     26.470 (MB)
	Total:                                     8.781 (MW) /     70.246 (MB)

	Size of irrep 0 of <iA|bC> integrals:      4.232 (MW) /     33.853 (MB)
	Size of irrep 1 of <iA|bC> integrals:      2.286 (MW) /     18.289 (MB)
	Total:                                     6.518 (MW) /     52.142 (MB)

	Size of irrep 0 of tIjAb amplitudes:       0.292 (MW) /      2.335 (MB)
	Size of irrep 1 of tIjAb amplitudes:       0.120 (MW) /      0.963 (MB)
	Total:                                     0.412 (MW) /      3.297 (MB)

	Nuclear Rep. energy          =     22.89710024735930
	SCF energy                   =   -150.87438304186605
	One-electron energy          =    -84.38609191925590
	Two-electron (AA) energy     =     10.13537182485896
	Two-electron (BB) energy     =      5.39116724975313
	Two-electron (AB) energy     =     20.94383410813391
	Two-electron energy          =     36.47037318274600
	Reference energy             =   -150.87438304186651

*** tstop() called on c2-13.compute.lan at Wed Mar 10 10:59:02 2021
Module time:
	user time   =     429.64 seconds =       7.16 minutes
	system time =      35.08 seconds =       0.58 minutes
	total time  =         68 seconds =       1.13 minutes
Total time:
	user time   =     498.82 seconds =       8.31 minutes
	system time =      40.29 seconds =       0.67 minutes
	total time  =         80 seconds =       1.33 minutes
            **************************
            *                        *
            *        CCENERGY        *
            *                        *
            **************************

    Nuclear Rep. energy (wfn)     =   22.897100247359305
    SCF energy          (wfn)     = -150.874383041866054
    Reference energy    (file100) = -150.874383041866508

    Input parameters:
    -----------------
    Wave function   =     CCSD_T
    Reference wfn   =     UHF
    Brueckner       =     No
    Memory (Mbytes) =     4000.0
    Maxiter         =     50
    R_Convergence   =     1.0e-10
    E_Convergence   =     1.0e-10
    Restart         =     Yes
    DIIS            =     Yes
    AO Basis        =     NONE
    ABCD            =     NEW
    Cache Level     =     2
    Cache Type      =     LRU
    Print Level     =     1
    Num. of threads =     12
    # Amps to Print =     10
    Print MP2 Amps? =     No
    Analyze T2 Amps =     No
    Print Pair Ener =     No
    Local CC        =     No
    SCS-MP2         =     False
    SCSN-MP2        =     False
    SCS-CCSD        =     False

MP2 correlation energy -0.4166922185032033
                Solving CC Amplitude Equations
                ------------------------------
  Iter             Energy              RMS        T1Diag      D1Diag    New D1Diag    D2Diag
  ----     ---------------------    ---------   ----------  ----------  ----------   --------
     0        -0.416692218503203    0.000e+00    0.000000    0.000000    0.000000    0.000000
     1        -0.427387330323271    5.696e-02    0.010567    0.000000    0.000000    0.000000
     2        -0.435486452801805    1.692e-02    0.011044    0.000000    0.000000    0.000000
     3        -0.437613241927622    8.589e-03    0.012918    0.000000    0.000000    0.000000
     4        -0.437487402007172    2.537e-03    0.013286    0.000000    0.000000    0.000000
     5        -0.437472889541639    1.322e-03    0.013443    0.000000    0.000000    0.000000
     6        -0.437500115474889    5.154e-04    0.013465    0.000000    0.000000    0.000000
     7        -0.437504749807391    2.652e-04    0.013459    0.000000    0.000000    0.000000
     8        -0.437505354528548    9.983e-05    0.013455    0.000000    0.000000    0.000000
     9        -0.437506732076210    7.452e-05    0.013456    0.000000    0.000000    0.000000
    10        -0.437505168229029    6.437e-05    0.013457    0.000000    0.000000    0.000000
    11        -0.437505314878056    6.150e-05    0.013458    0.000000    0.000000    0.000000
    12        -0.437505026282155    5.981e-05    0.013461    0.000000    0.000000    0.000000
    13        -0.437505017834700    5.867e-05    0.013464    0.000000    0.000000    0.000000
    14        -0.437506196765347    5.678e-05    0.013482    0.000000    0.000000    0.000000
    15        -0.437506577036859    5.024e-05    0.013555    0.000000    0.000000    0.000000
    16        -0.437506353042052    3.360e-05    0.013696    0.000000    0.000000    0.000000
    17        -0.437506007760290    1.622e-05    0.013765    0.000000    0.000000    0.000000
    18        -0.437505877184288    7.609e-06    0.013783    0.000000    0.000000    0.000000
    19        -0.437506136731566    3.362e-06    0.013787    0.000000    0.000000    0.000000
    20        -0.437506248671205    1.506e-06    0.013788    0.000000    0.000000    0.000000
    21        -0.437506256581959    5.931e-07    0.013788    0.000000    0.000000    0.000000
    22        -0.437506257914416    2.811e-07    0.013788    0.000000    0.000000    0.000000
    23        -0.437506256832354    1.458e-07    0.013788    0.000000    0.000000    0.000000
    24        -0.437506256157632    6.049e-08    0.013788    0.000000    0.000000    0.000000
    25        -0.437506257124852    3.298e-08    0.013788    0.000000    0.000000    0.000000
    26        -0.437506257582736    2.556e-08    0.013788    0.000000    0.000000    0.000000
    27        -0.437506257740553    2.393e-08    0.013788    0.000000    0.000000    0.000000
    28        -0.437506257689314    2.318e-08    0.013788    0.000000    0.000000    0.000000
    29        -0.437506257526541    2.251e-08    0.013788    0.000000    0.000000    0.000000
    30        -0.437506257261226    2.143e-08    0.013788    0.000000    0.000000    0.000000
    31        -0.437506257456774    1.816e-08    0.013788    0.000000    0.000000    0.000000
    32        -0.437506257800560    9.556e-09    0.013788    0.000000    0.000000    0.000000
    33        -0.437506257902710    4.176e-09    0.013788    0.000000    0.000000    0.000000
    34        -0.437506257955137    1.709e-09    0.013788    0.000000    0.000000    0.000000
    35        -0.437506257962000    6.736e-10    0.013788    0.000000    0.000000    0.000000
    36        -0.437506257961754    2.880e-10    0.013788    0.000000    0.000000    0.000000
    37        -0.437506257959582    1.225e-10    0.013788    0.000000    0.000000    0.000000
    38        -0.437506257961039    5.821e-11    0.013788    0.000000    0.000000    0.000000

    Iterations converged.


    Largest TIA Amplitudes:
              7  87        -0.0122115670
              7  84        -0.0116513517
              7  85        -0.0094952509
              4   3         0.0090185120
              6  84        -0.0080639284
              5   9        -0.0076642780
              4  10         0.0070273510
              5   2        -0.0070024421
              2   2         0.0068915475
              7  86        -0.0062725936

    Largest Tia Amplitudes:
              5  86        -0.0123460784
              5  89        -0.0117929905
              5  85        -0.0098751789
              4   1        -0.0097970081
              3   3         0.0089910996
              3  10        -0.0070575637
              5  88        -0.0064647645
              5  87        -0.0060487614
              3  11         0.0058669905
              4   7        -0.0057207340

    Largest TIJAB Amplitudes:
      6   2  92  20        -0.0107848480
      6   2 101  38        -0.0097442862
      6   4  92  29        -0.0096393832
      6   2  92  21        -0.0089446250
      4   2  41  40         0.0083140299
      4   2  29  20        -0.0083081486
      6   2 102  38         0.0076213420
      4   2  29  21        -0.0074821267
      6   2 111  54        -0.0073589106
      6   2  88  38         0.0072497016

    Largest Tijab Amplitudes:
      4   1  42   1         0.0070087722
      4   1  91  85        -0.0067950126
      4   1  19   1         0.0063843097
      4   1 106  85        -0.0063052338
      5   2  94  13        -0.0062599520
      5   2  89  13        -0.0059249141
      5   2  92  17         0.0057865519
      5   2 100  17        -0.0057833873
      5   2  86  13        -0.0057552524
      3   2  18  15         0.0054039922

    Largest TIjAb Amplitudes:
      3   2  12  13        -0.0184139032
      2   1  38   1        -0.0169292347
      6   1  38  85        -0.0165160451
      4   4  29  30         0.0163439711
      4   1 103  85        -0.0151365511
      2   1 101  85         0.0146291873
      2   1  88  85        -0.0143907785
      4   1  41   1        -0.0143492444
      6   1 101   1        -0.0143315174
      6   1  88   1         0.0141169203

    SCF energy       (wfn)                    = -150.874383041866054
    Reference energy (file100)                = -150.874383041866508

    Opposite-spin MP2 correlation energy      =   -0.314697198316944
    Same-spin MP2 correlation energy          =   -0.101995020186260
    MP2 correlation energy                    =   -0.416692218503203
      * MP2 total energy                      = -151.291075260369723

    Opposite-spin CCSD correlation energy     =   -0.342247320196987
    Same-spin CCSD correlation energy         =   -0.095258937764051
    CCSD correlation energy                   =   -0.437506257961039
      * CCSD total energy                     = -151.311889299827556

            **************************
            *                        *
            *        CCTRIPLES       *
            *                        *
            **************************


    Wave function   =    CCSD_T
    Reference wfn   =      UHF

    Nuclear Rep. energy (wfn)                =   22.897100247359305
    SCF energy          (wfn)                = -150.874383041866054
    Reference energy    (file100)            = -150.874383041866508
    CCSD energy         (file100)            =   -0.437506257961039
    Total CCSD energy   (file100)            = -151.311889299827556

    Number of ijk index combinations:
    Spin Case AAA:                                  56
    Spin Case BBB:                                  20
    Spin Case AAB:                                 168
    Spin Case ABB:                                 120
    AAA (T) energy                             =   -0.000399625685769
    BBB (T) energy                             =   -0.000202754967909
    AAB (T) energy                             =   -0.006748578112269
    ABB (T) energy                             =   -0.005014981908810
    (T) energy                                   =   -0.012365940674757
      * CCSD(T) total energy                     = -151.324255240502310

Stephenergy -151.3242552405023
    Psi4 stopped on: Wednesday, 10 March 2021 11:02AM
    Psi4 wall time for execution: 0:04:53.71

*** Psi4 exiting successfully. Buy a developer a beer!
