
    -----------------------------------------------------------------------
          Psi4: An Open-Source Ab Initio Electronic Structure Package
                               Psi4 1.3.2 release

                         Git: Rev {HEAD} ecbda83 


    R. M. Parrish, L. A. Burns, D. G. A. Smith, A. C. Simmonett,
    A. E. DePrince III, E. G. Hohenstein, U. Bozkaya, A. Yu. Sokolov,
    R. Di Remigio, R. M. Richard, J. F. Gonthier, A. M. James,
    H. R. McAlexander, A. Kumar, M. Saitow, X. Wang, B. P. Pritchard,
    P. Verma, H. F. Schaefer III, K. Patkowski, R. A. King, E. F. Valeev,
    F. A. Evangelista, J. M. Turney, T. D. Crawford, and C. D. Sherrill,
    J. Chem. Theory Comput. 13(7) pp 3185--3197 (2017).
    (doi: 10.1021/acs.jctc.7b00174)


                         Additional Contributions by
    P. Kraus, H. Kruse, M. H. Lechner, M. C. Schieber, R. A. Shaw,
    A. Alenaizan, R. Galvelis, Z. L. Glick, S. Lehtola, and J. P. Misiewicz

    -----------------------------------------------------------------------


    Psi4 started on: Wednesday, 10 March 2021 10:56AM

    Process ID: 94530
    Host:       d3-15.compute.lan
    PSIDATADIR: /apps/gb/PSI4/1.3.2/share/psi4
    Memory:     500.0 MiB
    Threads:    12
    
  ==> Input File <==

--------------------------------------------------------------------------
memory 4 GB

molecule  {
0 3
O    0.000000000000    0.000000000000    1.270171670022
H    0.000000000000   -0.760239062147    1.861363063539
H   -0.000000000000    0.759420376253    1.857738424905
O    0.000000000000    0.000051584654   -1.504508874478
}
set {
basis aug-cc-pvtz
reference uhf
e_convergence 10
scf_type pk
freeze_core true
}

set ccenergy {
e_convergence 10
r_convergence 10
}

e = energy('ccsd(t)')

print_out('Stephenergy {}'.format(e))

--------------------------------------------------------------------------

  Memory set to   3.725 GiB by Python driver.

*** tstart() called on d3-15.compute.lan
*** at Wed Mar 10 10:56:04 2021

   => Loading Basis Set <=

    Name: AUG-CC-PVTZ
    Role: ORBITAL
    Keyword: BASIS
    atoms 1, 4 entry O          line   327 file /apps/gb/PSI4/1.3.2/share/psi4/basis/aug-cc-pvtz.gbs 
    atoms 2-3  entry H          line    36 file /apps/gb/PSI4/1.3.2/share/psi4/basis/aug-cc-pvtz.gbs 


         ---------------------------------------------------------
                                   SCF
               by Justin Turney, Rob Parrish, Andy Simmonett
                          and Daniel G. A. Smith
                              UHF Reference
                       12 Threads,   3814 MiB Core
         ---------------------------------------------------------

  ==> Geometry <==

    Molecular point group: cs
    Full point group: Cs

    Geometry (in Angstrom), charge = 0, multiplicity = 3:

       Center              X                  Y                   Z               Mass       
    ------------   -----------------  -----------------  -----------------  -----------------
         O           -0.000000000000    -1.270171670022     0.000000000000    15.994914619570
         H            0.760239062147    -1.861363063539     0.000000000000     1.007825032230
         H           -0.759420376253    -1.857738424905     0.000000000000     1.007825032230
         O           -0.000051584654     1.504508874478     0.000000000000    15.994914619570

  Running in cs symmetry.

  Rotational constants: A =     14.48601  B =      0.24438  C =      0.24033 [cm^-1]
  Rotational constants: A = 434279.70888  B =   7326.41514  C =   7204.86710 [MHz]
  Nuclear repulsion =   23.813875256339600

  Charge       = 0
  Multiplicity = 3
  Electrons    = 18
  Nalpha       = 10
  Nbeta        = 8

  ==> Algorithm <==

  SCF Algorithm Type is PK.
  DIIS enabled.
  MOM disabled.
  Fractional occupation disabled.
  Guess Type is SAD.
  Energy threshold   = 1.00e-10
  Density threshold  = 1.00e-08
  Integral threshold = 0.00e+00

  ==> Primary Basis <==

  Basis Set: AUG-CC-PVTZ
    Blend: AUG-CC-PVTZ
    Number of shells: 46
    Number of basis function: 138
    Number of Cartesian functions: 160
    Spherical Harmonics?: true
    Max angular momentum: 3

  ==> Pre-Iterations <==

   -------------------------------------------------------
    Irrep   Nso     Nmo     Nalpha   Nbeta   Ndocc  Nsocc
   -------------------------------------------------------
     A'        92      92       0       0       0       0
     A"        46      46       0       0       0       0
   -------------------------------------------------------
    Total     138     138      10       8       8       2
   -------------------------------------------------------

  ==> Integral Setup <==

  Using in-core PK algorithm.
   Calculation information:
      Number of atoms:                   4
      Number of AO shells:              46
      Number of primitives:             82
      Number of atomic orbitals:       160
      Number of basis functions:       138

      Integral cutoff                 1.00e-12
      Number of threads:                12

  Performing in-core PK
  Using 91996872 doubles for integral storage.
  We computed 908176 shell quartets total.
  Whereas there are 584821 unique shell quartets.
    55.29 percent of shell quartets recomputed by reordering.

  ==> DiskJK: Disk-Based J/K Matrices <==

    J tasked:                  Yes
    K tasked:                  Yes
    wK tasked:                  No
    Memory [MiB]:             2861
    Schwarz Cutoff:          1E-12

    OpenMP threads:             12

  Minimum eigenvalue in the overlap matrix is 3.2355329938E-04.
  Using Symmetric Orthogonalization.

  SCF Guess: Superposition of Atomic Densities via on-the-fly atomic UHF.

  ==> Iterations <==

                        Total Energy        Delta E     RMS |[F,P]|

   @UHF iter SAD:  -149.38139372730240   -1.49381e+02   0.00000e+00 
   @UHF iter   1:  -150.76988748396298   -1.38849e+00   4.82473e-03 DIIS
   @UHF iter   2:  -150.84064573278599   -7.07582e-02   3.06766e-03 DIIS
   @UHF iter   3:  -150.87197542770826   -3.13297e-02   4.02590e-04 DIIS
   @UHF iter   4:  -150.87334974226982   -1.37431e-03   1.23260e-04 DIIS
   @UHF iter   5:  -150.87348387548127   -1.34133e-04   5.03009e-05 DIIS
   @UHF iter   6:  -150.87351700738452   -3.31319e-05   1.50276e-05 DIIS
   @UHF iter   7:  -150.87352011155059   -3.10417e-06   3.86263e-06 DIIS
   @UHF iter   8:  -150.87352033642807   -2.24877e-07   1.07518e-06 DIIS
   @UHF iter   9:  -150.87352035340825   -1.69802e-08   2.67593e-07 DIIS
   @UHF iter  10:  -150.87352035452858   -1.12033e-09   1.29523e-07 DIIS
   @UHF iter  11:  -150.87352035489002   -3.61439e-10   5.27046e-08 DIIS
   @UHF iter  12:  -150.87352035495866   -6.86384e-11   1.94841e-08 DIIS
   @UHF iter  13:  -150.87352035497042   -1.17666e-11   1.63955e-08 DIIS
   @UHF iter  14:  -150.87352035498083   -1.04023e-11   1.59055e-08 DIIS
   @UHF iter  15:  -150.87352035500032   -1.94973e-11   1.55210e-08 DIIS
   @UHF iter  16:  -150.87352035509988   -9.95612e-11   1.36285e-08 DIIS
   @UHF iter  17:  -150.87352035535972   -2.59831e-10   6.01003e-09 DIIS
   @UHF iter  18:  -150.87352035539510   -3.53850e-11   2.19635e-09 DIIS
  Energy and wave function converged.


  ==> Post-Iterations <==

   @Spin Contamination Metric:   9.530497625E-03
   @S^2 Expected:                2.000000000E+00
   @S^2 Observed:                2.009530498E+00
   @S   Expected:                1.000000000E+00
   @S   Observed:                1.000000000E+00

    Orbital Energies [Eh]
    ---------------------

    Alpha Occupied:                                                       

       1Ap   -20.684529     2Ap   -20.571198     3Ap    -1.393949  
       4Ap    -1.355276     5Ap    -0.718715     6Ap    -0.688197  
       1App   -0.685251     7Ap    -0.586446     8Ap    -0.586259  
       2App   -0.513968  

    Alpha Virtual:                                                        

       9Ap     0.029552    10Ap     0.047672    11Ap     0.118599  
       3App    0.154050    12Ap     0.159469    13Ap     0.180289  
      14Ap     0.186920     4App    0.192748    15Ap     0.198009  
       5App    0.263712    16Ap     0.264040    17Ap     0.264769  
      18Ap     0.314357     6App    0.326715    19Ap     0.376040  
      20Ap     0.380350    21Ap     0.449969    22Ap     0.464342  
      23Ap     0.599991     7App    0.643616    24Ap     0.647420  
       8App    0.658158    25Ap     0.666513    26Ap     0.696152  
       9App    0.721701    27Ap     0.722498    10App    0.767508  
      28Ap     0.792753    29Ap     0.818541    11App    0.837800  
      30Ap     0.861026    12App    0.901226    31Ap     0.918620  
      13App    0.924714    32Ap     0.946260    33Ap     0.979674  
      34Ap     0.989723    14App    1.012605    35Ap     1.046323  
      36Ap     1.051397    15App    1.121924    16App    1.176715  
      37Ap     1.191590    38Ap     1.198768    39Ap     1.326812  
      40Ap     1.336507    41Ap     1.443292    17App    1.507246  
      18App    1.594017    42Ap     1.666487    43Ap     1.812412  
      44Ap     1.822066    45Ap     1.976726    46Ap     2.040757  
      19App    2.047759    47Ap     2.054050    20App    2.056758  
      21App    2.058909    48Ap     2.079182    49Ap     2.114901  
      22App    2.118691    50Ap     2.135165    51Ap     2.140272  
      23App    2.145198    52Ap     2.252110    53Ap     2.267144  
      24App    2.303352    25App    2.311835    26App    2.434024  
      54Ap     2.469923    55Ap     2.482294    56Ap     2.486361  
      57Ap     2.695597    27App    2.715926    58Ap     2.720845  
      59Ap     2.839921    60Ap     2.862105    28App    2.880086  
      61Ap     3.690565    62Ap     3.753202    29App    4.013182  
      30App    4.079391    31App    4.099245    63Ap     4.139910  
      64Ap     4.183233    65Ap     4.281022    32App    4.289278  
      66Ap     4.350925    33App    4.381627    67Ap     4.427329  
      34App    4.450998    68Ap     4.515216    69Ap     4.788460  
      70Ap     4.839437    71Ap     5.141264    35App    5.143997  
      72Ap     5.247795    73Ap     5.339607    36App    5.515865  
      74Ap     5.683799    75Ap     6.198400    37App    6.388924  
      76Ap     6.408845    38App    6.410138    77Ap     6.423576  
      39App    6.435491    78Ap     6.485538    79Ap     6.535690  
      80Ap     6.581844    40App    6.716102    41App    6.902275  
      81Ap     6.905557    42App    6.924506    82Ap     6.939616  
      83Ap     6.985624    84Ap     7.046577    43App    7.134743  
      44App    7.277825    45App    7.306042    85Ap     7.308481  
      46App    7.352301    86Ap     7.437905    87Ap     7.542083  
      88Ap     7.907933    89Ap     7.916004    90Ap     8.804272  
      91Ap     8.860234    92Ap    15.769650  

    Beta Occupied:                                                        

       1Ap   -20.605663     2Ap   -20.570737     3Ap    -1.354590  
       4Ap    -1.051143     5Ap    -0.718386     6Ap    -0.588173  
       1App   -0.513308     7Ap    -0.495680  

    Beta Virtual:                                                         

       8Ap     0.029392     9Ap     0.047752     2App    0.086504  
      10Ap     0.091923    11Ap     0.140939    12Ap     0.167038  
       3App    0.170625    13Ap     0.180919    14Ap     0.190508  
      15Ap     0.225534     4App    0.253278     5App    0.263714  
      16Ap     0.264490    17Ap     0.288395    18Ap     0.316748  
       6App    0.328018    19Ap     0.380522    20Ap     0.386386  
      21Ap     0.451054    22Ap     0.464537    23Ap     0.601609  
      24Ap     0.660468     7App    0.667436     8App    0.672580  
      25Ap     0.673623    26Ap     0.713389     9App    0.722166  
      27Ap     0.734709    10App    0.778774    28Ap     0.806053  
      11App    0.846936    29Ap     0.850668    12App    0.925100  
      30Ap     0.928058    31Ap     0.936370    32Ap     0.953318  
      33Ap     0.983416    13App    0.986618    34Ap     0.996885  
      35Ap     1.052212    36Ap     1.052773    14App    1.060418  
      15App    1.137952    16App    1.176912    37Ap     1.193085  
      38Ap     1.201490    39Ap     1.329217    40Ap     1.393132  
      41Ap     1.482670    17App    1.507663    18App    1.595986  
      42Ap     1.696643    43Ap     1.817414    44Ap     1.822420  
      45Ap     1.978115    46Ap     2.070280    19App    2.070814  
      47Ap     2.071476    20App    2.081398    48Ap     2.099475  
      21App    2.100298    49Ap     2.155524    50Ap     2.180880  
      22App    2.201912    51Ap     2.207662    23App    2.258252  
      52Ap     2.308890    24App    2.311953    53Ap     2.318951  
      25App    2.319210    26App    2.441855    54Ap     2.482484  
      55Ap     2.485796    56Ap     2.514781    57Ap     2.702974  
      27App    2.717627    58Ap     2.721747    59Ap     2.852043  
      60Ap     2.862287    28App    2.880119    61Ap     3.691433  
      62Ap     3.753337    29App    4.013210    30App    4.081715  
      63Ap     4.172055    64Ap     4.218726    31App    4.259605  
      65Ap     4.292029    32App    4.294013    33App    4.381733  
      66Ap     4.426194    34App    4.456133    67Ap     4.467713  
      68Ap     4.515293    69Ap     4.799233    70Ap     4.839599  
      71Ap     5.141443    35App    5.144071    72Ap     5.248200  
      73Ap     5.340253    36App    5.515975    74Ap     5.688300  
      75Ap     6.200051    37App    6.485596    38App    6.486968  
      76Ap     6.487752    77Ap     6.493070    39App    6.499206  
      78Ap     6.521138    79Ap     6.607271    80Ap     6.609852  
      40App    6.722960    81Ap     6.955025    41App    7.038058  
      82Ap     7.041919    42App    7.084833    83Ap     7.097486  
      43App    7.135145    84Ap     7.173945    44App    7.281942  
      45App    7.306328    85Ap     7.308666    46App    7.352712  
      86Ap     7.440663    87Ap     7.543156    88Ap     7.908475  
      89Ap     7.916369    90Ap     8.804641    91Ap     8.939658  
      92Ap    15.769966  

    Final Occupation by Irrep:
             Ap   App 
    DOCC [     7,    1 ]
    SOCC [     1,    1 ]

  @UHF Final Energy:  -150.87352035539510

   => Energetics <=

    Nuclear Repulsion Energy =             23.8138752563395997
    One-Electron Energy =                -255.6933240493757182
    Two-Electron Energy =                  81.0059284376410034
    Total Energy =                       -150.8735203553951010

  UHF NO Occupations:
  HONO-2 :    7 Ap 1.9970493
  HONO-1 :    2App 1.0000000
  HONO-0 :    8 Ap 1.0000000
  LUNO+0 :    9 Ap 0.0029507
  LUNO+1 :   10 Ap 0.0017949
  LUNO+2 :   11 Ap 0.0000216
  LUNO+3 :   12 Ap 0.0000024


Computation Completed


Properties will be evaluated at   0.000000,   0.000000,   0.000000 [a0]

Properties computed using the SCF density matrix

  Nuclear Dipole Moment: [e a0]
     X:     0.0008      Y:    -3.4854      Z:     0.0000

  Electronic Dipole Moment: [e a0]
     X:    -0.0007      Y:     2.6490      Z:     0.0000

  Dipole Moment: [e a0]
     X:     0.0001      Y:    -0.8364      Z:     0.0000     Total:     0.8364

  Dipole Moment: [D]
     X:     0.0002      Y:    -2.1259      Z:     0.0000     Total:     2.1259


*** tstop() called on d3-15.compute.lan at Wed Mar 10 10:56:09 2021
Module time:
	user time   =      48.12 seconds =       0.80 minutes
	system time =       2.06 seconds =       0.03 minutes
	total time  =          5 seconds =       0.08 minutes
Total time:
	user time   =      48.12 seconds =       0.80 minutes
	system time =       2.06 seconds =       0.03 minutes
	total time  =          5 seconds =       0.08 minutes
 MINTS: Wrapper to libmints.
   by Justin Turney

   Calculation information:
      Number of threads:                12
      Number of atoms:                   4
      Number of AO shells:              46
      Number of SO shells:              46
      Number of primitives:             82
      Number of atomic orbitals:       160
      Number of basis functions:       138

      Number of irreps:                  2
      Integral cutoff                 0.00e+00
      Number of functions per irrep: [  92   46 ]

 OEINTS: Overlap, kinetic, potential, dipole, and quadrupole integrals
         stored in file 35.

      Computing two-electron integrals...done
      Computed 22920274 non-zero two-electron integrals.
        Stored in file 33.


*** tstart() called on d3-15.compute.lan
*** at Wed Mar 10 10:56:13 2021


	Wfn Parameters:
	--------------------
	Wavefunction         = CCSD_T
	Number of irreps     = 2
	Number of MOs        = 138
	Number of active MOs = 136
	AO-Basis             = NONE
	Semicanonical        = false
	Reference            = UHF
	Print Level          = 1

	IRREP	# MOs	# FZDC	# DOCC	# SOCC	# VIRT	# FZVR
	-----	-----	------	------	------	------	------
	 Ap	   92	    2	    5	    1	    84	    0
	 App	   46	    0	    1	    1	    44	    0
	Transforming integrals...
	IWL integrals will be deleted.
	(OO|OO)...
	Presorting SO-basis two-electron integrals.
	Sorting File: SO Ints (nn|nn) nbuckets = 1
	Transforming the one-electron integrals and constructing Fock matrices
	Starting AA/AB first half-transformation.
	Sorting AA/AB half-transformed integrals.
	Starting BB first half-transformation.
	Sorting BB half-transformed integrals.
	First half integral transformation complete.
	Starting AA second half-transformation.
	Starting AB second half-transformation.
	Starting BB second half-transformation.
	Two-electron integral transformation complete.
	(OO|OV)...
	Starting AA second half-transformation.
	Starting AB second half-transformation.
	Starting BB second half-transformation.
	Two-electron integral transformation complete.
	(OO|VV)...
	Starting AA second half-transformation.
	Starting AB second half-transformation.
	Starting BB second half-transformation.
	Two-electron integral transformation complete.
	(OV|OO)...
	Starting AA/AB first half-transformation.
	Sorting AA/AB half-transformed integrals.
	Starting BB first half-transformation.
	Sorting BB half-transformed integrals.
	First half integral transformation complete.
	Starting AA second half-transformation.
	Starting AB second half-transformation.
	Starting BB second half-transformation.
	Two-electron integral transformation complete.
	(OV|OV)...
	Starting AA second half-transformation.
	Starting AB second half-transformation.
	Starting BB second half-transformation.
	Two-electron integral transformation complete.
	(OV|VV)...
	Starting AA second half-transformation.
	Starting AB second half-transformation.
	Starting BB second half-transformation.
	Two-electron integral transformation complete.
	(VV|OO)...
	Starting AA/AB first half-transformation.
	Sorting AA/AB half-transformed integrals.
	Starting BB first half-transformation.
	Sorting BB half-transformed integrals.
	First half integral transformation complete.
	Starting AA second half-transformation.
	Starting AB second half-transformation.
	Starting BB second half-transformation.
	Two-electron integral transformation complete.
	(VV|OV)...
	Starting AA second half-transformation.
	Starting AB second half-transformation.
	Starting BB second half-transformation.
	Two-electron integral transformation complete.
	(VV|VV)...
	Starting AA second half-transformation.
	Starting AB second half-transformation.
	Starting BB second half-transformation.
	Two-electron integral transformation complete.
	Frozen core energy     =   -126.36577707555725

	Size of irrep 0 of <AB|CD> integrals:     19.643 (MW) /    157.141 (MB)
	Size of irrep 1 of <AB|CD> integrals:     13.660 (MW) /    109.283 (MB)
	Total:                                    33.303 (MW) /    266.424 (MB)

	Size of irrep 0 of <ab|cd> integrals:     20.794 (MW) /    166.349 (MB)
	Size of irrep 1 of <ab|cd> integrals:     14.631 (MW) /    117.045 (MB)
	Total:                                    35.424 (MW) /    283.394 (MB)

	Size of irrep 0 of <Ab|Cd> integrals:     83.174 (MW) /    665.395 (MB)
	Size of irrep 1 of <Ab|Cd> integrals:     56.550 (MW) /    452.403 (MB)
	Total:                                   139.725 (MW) /   1117.798 (MB)

	Size of irrep 0 of <IA|BC> integrals:      5.323 (MW) /     42.586 (MB)
	Size of irrep 1 of <IA|BC> integrals:      3.193 (MW) /     25.547 (MB)
	Total:                                     8.517 (MW) /     68.133 (MB)

	Size of irrep 0 of <ia|bc> integrals:      4.348 (MW) /     34.780 (MB)
	Size of irrep 1 of <ia|bc> integrals:      2.372 (MW) /     18.972 (MB)
	Total:                                     6.719 (MW) /     53.752 (MB)

	Size of irrep 0 of <Ia|Bc> integrals:      5.472 (MW) /     43.776 (MB)
	Size of irrep 1 of <Ia|Bc> integrals:      3.309 (MW) /     26.470 (MB)
	Total:                                     8.781 (MW) /     70.246 (MB)

	Size of irrep 0 of <iA|bC> integrals:      4.232 (MW) /     33.853 (MB)
	Size of irrep 1 of <iA|bC> integrals:      2.286 (MW) /     18.289 (MB)
	Total:                                     6.518 (MW) /     52.142 (MB)

	Size of irrep 0 of tIjAb amplitudes:       0.292 (MW) /      2.335 (MB)
	Size of irrep 1 of tIjAb amplitudes:       0.120 (MW) /      0.963 (MB)
	Total:                                     0.412 (MW) /      3.297 (MB)

	Nuclear Rep. energy          =     23.81387525633960
	SCF energy                   =   -150.87352035539510
	One-electron energy          =    -85.39389686417303
	Two-electron (AA) energy     =     10.36146607388304
	Two-electron (BB) energy     =      5.46567583440615
	Two-electron (AB) energy     =     21.24513641970327
	Two-electron energy          =     37.07227832799246
	Reference energy             =   -150.87352035539823

*** tstop() called on d3-15.compute.lan at Wed Mar 10 10:56:57 2021
Module time:
	user time   =     253.12 seconds =       4.22 minutes
	system time =      21.18 seconds =       0.35 minutes
	total time  =         44 seconds =       0.73 minutes
Total time:
	user time   =     308.49 seconds =       5.14 minutes
	system time =      24.12 seconds =       0.40 minutes
	total time  =         53 seconds =       0.88 minutes
            **************************
            *                        *
            *        CCENERGY        *
            *                        *
            **************************

    Nuclear Rep. energy (wfn)     =   23.813875256339600
    SCF energy          (wfn)     = -150.873520355395101
    Reference energy    (file100) = -150.873520355398227

    Input parameters:
    -----------------
    Wave function   =     CCSD_T
    Reference wfn   =     UHF
    Brueckner       =     No
    Memory (Mbytes) =     4000.0
    Maxiter         =     50
    R_Convergence   =     1.0e-10
    E_Convergence   =     1.0e-10
    Restart         =     Yes
    DIIS            =     Yes
    AO Basis        =     NONE
    ABCD            =     NEW
    Cache Level     =     2
    Cache Type      =     LRU
    Print Level     =     1
    Num. of threads =     12
    # Amps to Print =     10
    Print MP2 Amps? =     No
    Analyze T2 Amps =     No
    Print Pair Ener =     No
    Local CC        =     No
    SCS-MP2         =     False
    SCSN-MP2        =     False
    SCS-CCSD        =     False

MP2 correlation energy -0.4162742783326807
                Solving CC Amplitude Equations
                ------------------------------
  Iter             Energy              RMS        T1Diag      D1Diag    New D1Diag    D2Diag
  ----     ---------------------    ---------   ----------  ----------  ----------   --------
     0        -0.416274278332681    0.000e+00    0.000000    0.000000    0.000000    0.000000
     1        -0.427054333566190    5.698e-02    0.010579    0.000000    0.000000    0.000000
     2        -0.435151484972149    1.703e-02    0.011073    0.000000    0.000000    0.000000
     3        -0.437302996055524    8.772e-03    0.012994    0.000000    0.000000    0.000000
     4        -0.437176579747313    2.680e-03    0.013403    0.000000    0.000000    0.000000
     5        -0.437167089633545    1.394e-03    0.013595    0.000000    0.000000    0.000000
     6        -0.437196153438684    5.294e-04    0.013621    0.000000    0.000000    0.000000
     7        -0.437199127291190    2.145e-04    0.013615    0.000000    0.000000    0.000000
     8        -0.437200067305928    6.677e-05    0.013611    0.000000    0.000000    0.000000
     9        -0.437200752613923    2.385e-05    0.013610    0.000000    0.000000    0.000000
    10        -0.437199853487000    9.222e-06    0.013610    0.000000    0.000000    0.000000
    11        -0.437200019043787    4.008e-06    0.013610    0.000000    0.000000    0.000000
    12        -0.437199979343055    1.469e-06    0.013610    0.000000    0.000000    0.000000
    13        -0.437199987264139    7.761e-07    0.013610    0.000000    0.000000    0.000000
    14        -0.437200009892539    4.005e-07    0.013610    0.000000    0.000000    0.000000
    15        -0.437200011614608    2.802e-07    0.013610    0.000000    0.000000    0.000000
    16        -0.437200012253212    2.594e-07    0.013610    0.000000    0.000000    0.000000
    17        -0.437200013319485    2.524e-07    0.013610    0.000000    0.000000    0.000000
    18        -0.437200012777011    2.482e-07    0.013610    0.000000    0.000000    0.000000
    19        -0.437200009812257    2.355e-07    0.013610    0.000000    0.000000    0.000000
    20        -0.437200010778256    2.046e-07    0.013610    0.000000    0.000000    0.000000
    21        -0.437200010212644    1.326e-07    0.013610    0.000000    0.000000    0.000000
    22        -0.437200011582640    5.963e-08    0.013610    0.000000    0.000000    0.000000
    23        -0.437200012192035    2.828e-08    0.013610    0.000000    0.000000    0.000000
    24        -0.437200012317797    1.293e-08    0.013610    0.000000    0.000000    0.000000
    25        -0.437200012276826    5.524e-09    0.013610    0.000000    0.000000    0.000000
    26        -0.437200012279003    2.117e-09    0.013610    0.000000    0.000000    0.000000
    27        -0.437200012283055    9.292e-10    0.013610    0.000000    0.000000    0.000000
    28        -0.437200012295309    4.643e-10    0.013610    0.000000    0.000000    0.000000
    29        -0.437200012299338    2.036e-10    0.013610    0.000000    0.000000    0.000000
    30        -0.437200012302920    1.085e-10    0.013610    0.000000    0.000000    0.000000
    31        -0.437200012302938    8.644e-11    0.013610    0.000000    0.000000    0.000000

    Iterations converged.


    Largest TIA Amplitudes:
              7  84        -0.0133342794
              7  87        -0.0111767172
              5   5        -0.0103329546
              7  85        -0.0097199468
              6  84        -0.0074633052
              4   2         0.0073831684
              3   6         0.0072090910
              6  85         0.0071610150
              4   9        -0.0055781991
              4  10         0.0053704501

    Largest Tia Amplitudes:
              5  86        -0.0148349977
              3   3         0.0134215079
              5  89        -0.0107902761
              4   6         0.0079595981
              5  85        -0.0076695663
              3   2        -0.0068080410
              3  12         0.0056045562
              3  10        -0.0055721724
              1  43        -0.0054437603
              2  37         0.0053913155

    Largest TIJAB Amplitudes:
      6   5  93  22        -0.0142303989
      6   5 103  40        -0.0135427037
      5   3  22  20         0.0120989455
      6   3  93  20         0.0110283481
      7   2  90  16        -0.0086543885
      6   5  89  40         0.0082234653
      7   2  95  13         0.0080769196
      6   5  93   5        -0.0078199130
      6   5 103  15        -0.0076027476
      6   5 112  22         0.0073572116

    Largest Tijab Amplitudes:
      4   1 105  85         0.0086752655
      4   1  91  85        -0.0085724859
      4   1 105  87         0.0081613786
      5   2  86  14         0.0076470242
      4   1  91  87        -0.0074575736
      5   2  96  14         0.0073195490
      3   2  14   3         0.0071789369
      3   2  20  14        -0.0068593297
      3   2  16  15         0.0067270233
      5   2  92  17        -0.0065446395

    Largest TIjAb Amplitudes:
      2   2  13  14        -0.0218161660
      5   4  22  24        -0.0218072379
      5   4  22  23         0.0187699022
      5   1 103  85         0.0180051866
      5   4  22   6         0.0170076978
      5   1 103  87         0.0167908186
      6   1  40  85        -0.0167257968
      7   5  95  96        -0.0162572494
      6   1  40  87        -0.0155573574
      6   1  15  85        -0.0145420883

    SCF energy       (wfn)                    = -150.873520355395101
    Reference energy (file100)                = -150.873520355398227

    Opposite-spin MP2 correlation energy      =   -0.314432955024888
    Same-spin MP2 correlation energy          =   -0.101841323307793
    MP2 correlation energy                    =   -0.416274278332681
      * MP2 total energy                      = -151.289794633730907

    Opposite-spin CCSD correlation energy     =   -0.342092427552116
    Same-spin CCSD correlation energy         =   -0.095107584750822
    CCSD correlation energy                   =   -0.437200012302938
      * CCSD total energy                     = -151.310720367701180

            **************************
            *                        *
            *        CCTRIPLES       *
            *                        *
            **************************


    Wave function   =    CCSD_T
    Reference wfn   =      UHF

    Nuclear Rep. energy (wfn)                =   23.813875256339600
    SCF energy          (wfn)                = -150.873520355395101
    Reference energy    (file100)            = -150.873520355398227
    CCSD energy         (file100)            =   -0.437200012302938
    Total CCSD energy   (file100)            = -151.310720367701180

    Number of ijk index combinations:
    Spin Case AAA:                                  56
    Spin Case BBB:                                  20
    Spin Case AAB:                                 168
    Spin Case ABB:                                 120
    AAA (T) energy                             =   -0.000395720124023
    BBB (T) energy                             =   -0.000202136875516
    AAB (T) energy                             =   -0.006709955078153
    ABB (T) energy                             =   -0.004985155569923
    (T) energy                                   =   -0.012292967647614
      * CCSD(T) total energy                     = -151.323013335348776

Stephenergy -151.32301333534878
    Psi4 stopped on: Wednesday, 10 March 2021 10:59AM
    Psi4 wall time for execution: 0:03:19.81

*** Psi4 exiting successfully. Buy a developer a beer!
