
    -----------------------------------------------------------------------
          Psi4: An Open-Source Ab Initio Electronic Structure Package
                               Psi4 1.3.2 release

                         Git: Rev {HEAD} ecbda83 


    R. M. Parrish, L. A. Burns, D. G. A. Smith, A. C. Simmonett,
    A. E. DePrince III, E. G. Hohenstein, U. Bozkaya, A. Yu. Sokolov,
    R. Di Remigio, R. M. Richard, J. F. Gonthier, A. M. James,
    H. R. McAlexander, A. Kumar, M. Saitow, X. Wang, B. P. Pritchard,
    P. Verma, H. F. Schaefer III, K. Patkowski, R. A. King, E. F. Valeev,
    F. A. Evangelista, J. M. Turney, T. D. Crawford, and C. D. Sherrill,
    J. Chem. Theory Comput. 13(7) pp 3185--3197 (2017).
    (doi: 10.1021/acs.jctc.7b00174)


                         Additional Contributions by
    P. Kraus, H. Kruse, M. H. Lechner, M. C. Schieber, R. A. Shaw,
    A. Alenaizan, R. Galvelis, Z. L. Glick, S. Lehtola, and J. P. Misiewicz

    -----------------------------------------------------------------------


    Psi4 started on: Monday, 08 March 2021 09:44AM

    Process ID: 113743
    Host:       c2-13.compute.lan
    PSIDATADIR: /apps/gb/PSI4/1.3.2/share/psi4
    Memory:     500.0 MiB
    Threads:    12
    
  ==> Input File <==

--------------------------------------------------------------------------
memory 4 GB

molecule  {
0 1
O    0.000000000000    0.000000000000   -0.066128900300
H    0.000000000000   -0.758684214200    0.524756818400
H   -0.000000000000    0.758684214200    0.524756818400
}
set {
basis aug-cc-pvtz
reference uhf
e_convergence 10
scf_type pk
freeze_core true
}

set ccenergy {
e_convergence 10
r_convergence 10
}

e = energy('ccsd(t)')

print_out('Stephenergy {}'.format(e))

--------------------------------------------------------------------------

  Memory set to   3.725 GiB by Python driver.

*** tstart() called on c2-13.compute.lan
*** at Mon Mar  8 09:44:19 2021

   => Loading Basis Set <=

    Name: AUG-CC-PVTZ
    Role: ORBITAL
    Keyword: BASIS
    atoms 1   entry O          line   327 file /apps/gb/PSI4/1.3.2/share/psi4/basis/aug-cc-pvtz.gbs 
    atoms 2-3 entry H          line    36 file /apps/gb/PSI4/1.3.2/share/psi4/basis/aug-cc-pvtz.gbs 


         ---------------------------------------------------------
                                   SCF
               by Justin Turney, Rob Parrish, Andy Simmonett
                          and Daniel G. A. Smith
                              UHF Reference
                       12 Threads,   3814 MiB Core
         ---------------------------------------------------------

  ==> Geometry <==

    Molecular point group: c2v
    Full point group: C2v

    Geometry (in Angstrom), charge = 0, multiplicity = 1:

       Center              X                  Y                   Z               Mass       
    ------------   -----------------  -----------------  -----------------  -----------------
         O            0.000000000000     0.000000000000    -0.066128900336    15.994914619570
         H            0.000000000000    -0.758684214200     0.524756818364     1.007825032230
         H           -0.000000000000     0.758684214200     0.524756818364     1.007825032230

  Running in c2v symmetry.

  Rotational constants: A =     26.97241  B =     14.52979  C =      9.44296 [cm^-1]
  Rotational constants: A = 808612.55248  B = 435592.07204  C = 283092.67646 [MHz]
  Nuclear repulsion =    9.153343893858455

  Charge       = 0
  Multiplicity = 1
  Electrons    = 10
  Nalpha       = 5
  Nbeta        = 5

  ==> Algorithm <==

  SCF Algorithm Type is PK.
  DIIS enabled.
  MOM disabled.
  Fractional occupation disabled.
  Guess Type is SAD.
  Energy threshold   = 1.00e-10
  Density threshold  = 1.00e-08
  Integral threshold = 0.00e+00

  ==> Primary Basis <==

  Basis Set: AUG-CC-PVTZ
    Blend: AUG-CC-PVTZ
    Number of shells: 32
    Number of basis function: 92
    Number of Cartesian functions: 105
    Spherical Harmonics?: true
    Max angular momentum: 3

  ==> Pre-Iterations <==

   -------------------------------------------------------
    Irrep   Nso     Nmo     Nalpha   Nbeta   Ndocc  Nsocc
   -------------------------------------------------------
     A1        35      35       0       0       0       0
     A2        12      12       0       0       0       0
     B1        18      18       0       0       0       0
     B2        27      27       0       0       0       0
   -------------------------------------------------------
    Total      92      92       5       5       5       0
   -------------------------------------------------------

  ==> Integral Setup <==

  Using in-core PK algorithm.
   Calculation information:
      Number of atoms:                   3
      Number of AO shells:              32
      Number of primitives:             52
      Number of atomic orbitals:       105
      Number of basis functions:        92

      Integral cutoff                 1.00e-12
      Number of threads:                12

  Performing in-core PK
  Using 18305562 doubles for integral storage.
  We computed 240258 shell quartets total.
  Whereas there are 139656 unique shell quartets.
    72.04 percent of shell quartets recomputed by reordering.

  ==> DiskJK: Disk-Based J/K Matrices <==

    J tasked:                  Yes
    K tasked:                  Yes
    wK tasked:                  No
    Memory [MiB]:             2861
    Schwarz Cutoff:          1E-12

    OpenMP threads:             12

  Minimum eigenvalue in the overlap matrix is 3.8895511195E-04.
  Using Symmetric Orthogonalization.

  SCF Guess: Superposition of Atomic Densities via on-the-fly atomic UHF.

  ==> Iterations <==

                        Total Energy        Delta E     RMS |[F,P]|

   @UHF iter SAD:   -75.47334017900631   -7.54733e+01   0.00000e+00 
   @UHF iter   1:   -75.97580902951900   -5.02469e-01   9.51519e-03 DIIS
   @UHF iter   2:   -76.02823468889677   -5.24257e-02   6.50271e-03 DIIS
   @UHF iter   3:   -76.05984689777726   -3.16122e-02   4.41791e-04 DIIS
   @UHF iter   4:   -76.06023848375096   -3.91586e-04   1.06249e-04 DIIS
   @UHF iter   5:   -76.06026320949461   -2.47257e-05   2.41624e-05 DIIS
   @UHF iter   6:   -76.06026523693643   -2.02744e-06   5.29241e-06 DIIS
   @UHF iter   7:   -76.06026534381046   -1.06874e-07   9.52153e-07 DIIS
   @UHF iter   8:   -76.06026534684827   -3.03781e-09   1.60015e-07 DIIS
   @UHF iter   9:   -76.06026534691546   -6.71889e-11   3.94309e-08 DIIS
   @UHF iter  10:   -76.06026534691972   -4.26326e-12   5.77873e-09 DIIS
  Energy and wave function converged.


  ==> Post-Iterations <==

   @Spin Contamination Metric:   3.375077995E-14
   @S^2 Expected:                0.000000000E+00
   @S^2 Observed:                3.375077995E-14
   @S   Expected:                0.000000000E+00
   @S   Observed:                0.000000000E+00

    Orbital Energies [Eh]
    ---------------------

    Alpha Occupied:                                                       

       1A1   -20.568119     2A1    -1.351579     1B2    -0.714781  
       3A1    -0.584767     1B1    -0.510099  

    Alpha Virtual:                                                        

       4A1     0.029367     2B2     0.047688     5A1     0.135896  
       2B1     0.158787     6A1     0.175139     3B2     0.183067  
       4B2     0.227116     7A1     0.244898     1A2     0.265365  
       3B1     0.300058     8A1     0.310161     5B2     0.365760  
       9A1     0.437267     6B2     0.465976     7B2     0.599207  
      10A1     0.658367    11A1     0.707987     2A2     0.722598  
       4B1     0.731674    12A1     0.830353     5B1     0.846234  
      13A1     0.892222     8B2     0.912406     6B1     0.918376  
       3A2     0.922294     9B2     0.930694    14A1     0.961469  
      15A1     1.020713    10B2     1.042985     7B1     1.082476  
      11B2     1.108390     4A2     1.176007    16A1     1.181595  
      12B2     1.261103     5A2     1.509963    17A1     1.535549  
       8B1     1.582534    18A1     1.805341    13B2     1.819442  
      14B2     1.983644    19A1     2.116775     9B1     2.262504  
       6A2     2.315558    20A1     2.326720    21A1     2.418092  
      10B1     2.420328    15B2     2.442979    22A1     2.479395  
      16B2     2.677637    11B1     2.698147    23A1     2.770147  
      17B2     2.815844     7A2     2.883621    18B2     3.651357  
      24A1     3.740804     8A2     4.016896    12B1     4.082176  
      25A1     4.164001    19B2     4.245933    13B1     4.287480  
      26A1     4.374603     9A2     4.376864    14B1     4.404048  
      20B2     4.516319    27A1     4.723515    21B2     4.840674  
      22B2     5.146197    10A2     5.146650    23B2     5.249189  
      28A1     5.320570    15B1     5.518989    29A1     5.661699  
      30A1     6.175649    24B2     6.513412    16B1     6.708696  
      31A1     6.895598    17B1     7.130864    18B1     7.250537  
      25B2     7.298707    11A2     7.310285    32A1     7.327550  
      12A2     7.354198    33A1     7.529210    34A1     7.896152  
      26B2     7.919635    27B2     8.796457    35A1    15.696194  

    Beta Occupied:                                                        

       1A1   -20.568119     2A1    -1.351579     1B2    -0.714781  
       3A1    -0.584767     1B1    -0.510099  

    Beta Virtual:                                                         

       4A1     0.029367     2B2     0.047688     5A1     0.135896  
       2B1     0.158787     6A1     0.175139     3B2     0.183067  
       4B2     0.227116     7A1     0.244898     1A2     0.265365  
       3B1     0.300058     8A1     0.310161     5B2     0.365760  
       9A1     0.437267     6B2     0.465976     7B2     0.599207  
      10A1     0.658367    11A1     0.707987     2A2     0.722598  
       4B1     0.731674    12A1     0.830353     5B1     0.846234  
      13A1     0.892222     8B2     0.912406     6B1     0.918376  
       3A2     0.922294     9B2     0.930694    14A1     0.961469  
      15A1     1.020713    10B2     1.042985     7B1     1.082476  
      11B2     1.108390     4A2     1.176007    16A1     1.181595  
      12B2     1.261103     5A2     1.509963    17A1     1.535549  
       8B1     1.582534    18A1     1.805341    13B2     1.819442  
      14B2     1.983644    19A1     2.116775     9B1     2.262504  
       6A2     2.315558    20A1     2.326720    21A1     2.418092  
      10B1     2.420328    15B2     2.442979    22A1     2.479395  
      16B2     2.677637    11B1     2.698147    23A1     2.770147  
      17B2     2.815844     7A2     2.883621    18B2     3.651357  
      24A1     3.740804     8A2     4.016896    12B1     4.082176  
      25A1     4.164001    19B2     4.245933    13B1     4.287480  
      26A1     4.374603     9A2     4.376864    14B1     4.404048  
      20B2     4.516319    27A1     4.723515    21B2     4.840674  
      22B2     5.146197    10A2     5.146650    23B2     5.249189  
      28A1     5.320570    15B1     5.518989    29A1     5.661699  
      30A1     6.175649    24B2     6.513412    16B1     6.708696  
      31A1     6.895598    17B1     7.130864    18B1     7.250537  
      25B2     7.298707    11A2     7.310285    32A1     7.327550  
      12A2     7.354198    33A1     7.529210    34A1     7.896152  
      26B2     7.919635    27B2     8.796457    35A1    15.696194  

    Final Occupation by Irrep:
             A1    A2    B1    B2 
    DOCC [     3,    0,    1,    1 ]
    SOCC [     0,    0,    0,    0 ]

  @UHF Final Energy:   -76.06026534691972

   => Energetics <=

    Nuclear Repulsion Energy =              9.1533438938584553
    One-Electron Energy =                -122.9685293605979126
    Two-Electron Energy =                  37.7549201198197224
    Total Energy =                        -76.0602653469197207

  UHF NO Occupations:
  HONO-2 :    2 A1 2.0000000
  HONO-1 :    1 B1 2.0000000
  HONO-0 :    3 A1 2.0000000
  LUNO+0 :    4 A1 0.0000000
  LUNO+1 :    2 B2 0.0000000
  LUNO+2 :    5 A1 0.0000000
  LUNO+3 :    2 B1 0.0000000


Computation Completed


Properties will be evaluated at   0.000000,   0.000000,   0.000000 [a0]

Properties computed using the SCF density matrix

  Nuclear Dipole Moment: [e a0]
     X:     0.0000      Y:     0.0000      Z:     0.9836

  Electronic Dipole Moment: [e a0]
     X:     0.0000      Y:     0.0000      Z:    -0.2000

  Dipole Moment: [e a0]
     X:     0.0000      Y:     0.0000      Z:     0.7836     Total:     0.7836

  Dipole Moment: [D]
     X:     0.0000      Y:     0.0000      Z:     1.9918     Total:     1.9918


*** tstop() called on c2-13.compute.lan at Mon Mar  8 09:44:21 2021
Module time:
	user time   =      14.38 seconds =       0.24 minutes
	system time =       0.82 seconds =       0.01 minutes
	total time  =          2 seconds =       0.03 minutes
Total time:
	user time   =      14.38 seconds =       0.24 minutes
	system time =       0.82 seconds =       0.01 minutes
	total time  =          2 seconds =       0.03 minutes
 MINTS: Wrapper to libmints.
   by Justin Turney

   Calculation information:
      Number of threads:                12
      Number of atoms:                   3
      Number of AO shells:              32
      Number of SO shells:              23
      Number of primitives:             52
      Number of atomic orbitals:       105
      Number of basis functions:        92

      Number of irreps:                  4
      Integral cutoff                 0.00e+00
      Number of functions per irrep: [  35   12   18   27 ]

 OEINTS: Overlap, kinetic, potential, dipole, and quadrupole integrals
         stored in file 35.

      Computing two-electron integrals...done
      Computed 2227059 non-zero two-electron integrals.
        Stored in file 33.


*** tstart() called on c2-13.compute.lan
*** at Mon Mar  8 09:44:22 2021


	Wfn Parameters:
	--------------------
	Wavefunction         = CCSD_T
	Number of irreps     = 4
	Number of MOs        = 92
	Number of active MOs = 91
	AO-Basis             = NONE
	Semicanonical        = false
	Reference            = UHF
	Print Level          = 1

	IRREP	# MOs	# FZDC	# DOCC	# SOCC	# VIRT	# FZVR
	-----	-----	------	------	------	------	------
	 A1	   35	    1	    2	    0	    32	    0
	 A2	   12	    0	    0	    0	    12	    0
	 B1	   18	    0	    1	    0	    17	    0
	 B2	   27	    0	    1	    0	    26	    0
	Transforming integrals...
	IWL integrals will be deleted.
	(OO|OO)...
	Presorting SO-basis two-electron integrals.
	Sorting File: SO Ints (nn|nn) nbuckets = 1
	Transforming the one-electron integrals and constructing Fock matrices
	Starting AA/AB first half-transformation.
	Sorting AA/AB half-transformed integrals.
	Starting BB first half-transformation.
	Sorting BB half-transformed integrals.
	First half integral transformation complete.
	Starting AA second half-transformation.
	Starting AB second half-transformation.
	Starting BB second half-transformation.
	Two-electron integral transformation complete.
	(OO|OV)...
	Starting AA second half-transformation.
	Starting AB second half-transformation.
	Starting BB second half-transformation.
	Two-electron integral transformation complete.
	(OO|VV)...
	Starting AA second half-transformation.
	Starting AB second half-transformation.
	Starting BB second half-transformation.
	Two-electron integral transformation complete.
	(OV|OO)...
	Starting AA/AB first half-transformation.
	Sorting AA/AB half-transformed integrals.
	Starting BB first half-transformation.
	Sorting BB half-transformed integrals.
	First half integral transformation complete.
	Starting AA second half-transformation.
	Starting AB second half-transformation.
	Starting BB second half-transformation.
	Two-electron integral transformation complete.
	(OV|OV)...
	Starting AA second half-transformation.
	Starting AB second half-transformation.
	Starting BB second half-transformation.
	Two-electron integral transformation complete.
	(OV|VV)...
	Starting AA second half-transformation.
	Starting AB second half-transformation.
	Starting BB second half-transformation.
	Two-electron integral transformation complete.
	(VV|OO)...
	Starting AA/AB first half-transformation.
	Sorting AA/AB half-transformed integrals.
	Starting BB first half-transformation.
	Sorting BB half-transformed integrals.
	First half integral transformation complete.
	Starting AA second half-transformation.
	Starting AB second half-transformation.
	Starting BB second half-transformation.
	Two-electron integral transformation complete.
	(VV|OV)...
	Starting AA second half-transformation.
	Starting AB second half-transformation.
	Starting BB second half-transformation.
	Two-electron integral transformation complete.
	(VV|VV)...
	Starting AA second half-transformation.
	Starting AB second half-transformation.
	Starting BB second half-transformation.
	Two-electron integral transformation complete.
	Frozen core energy     =    -61.30660912604071

	Size of irrep 0 of <AB|CD> integrals:      1.047 (MW) /      8.372 (MB)
	Size of irrep 1 of <AB|CD> integrals:      0.682 (MW) /      5.458 (MB)
	Size of irrep 2 of <AB|CD> integrals:      0.733 (MW) /      5.862 (MB)
	Size of irrep 3 of <AB|CD> integrals:      1.073 (MW) /      8.586 (MB)
	Total:                                     3.535 (MW) /     28.279 (MB)

	Size of irrep 0 of <ab|cd> integrals:      1.047 (MW) /      8.372 (MB)
	Size of irrep 1 of <ab|cd> integrals:      0.682 (MW) /      5.458 (MB)
	Size of irrep 2 of <ab|cd> integrals:      0.733 (MW) /      5.862 (MB)
	Size of irrep 3 of <ab|cd> integrals:      1.073 (MW) /      8.586 (MB)
	Total:                                     3.535 (MW) /     28.279 (MB)

	Size of irrep 0 of <Ab|Cd> integrals:      4.550 (MW) /     36.398 (MB)
	Size of irrep 1 of <Ab|Cd> integrals:      2.729 (MW) /     21.833 (MB)
	Size of irrep 2 of <Ab|Cd> integrals:      2.931 (MW) /     23.448 (MB)
	Size of irrep 3 of <Ab|Cd> integrals:      4.293 (MW) /     34.345 (MB)
	Total:                                    14.503 (MW) /    116.023 (MB)

	Size of irrep 0 of <IA|BC> integrals:      0.228 (MW) /      1.826 (MB)
	Size of irrep 1 of <IA|BC> integrals:      0.111 (MW) /      0.885 (MB)
	Size of irrep 2 of <IA|BC> integrals:      0.134 (MW) /      1.068 (MB)
	Size of irrep 3 of <IA|BC> integrals:      0.199 (MW) /      1.591 (MB)
	Total:                                     0.671 (MW) /      5.371 (MB)

	Size of irrep 0 of <ia|bc> integrals:      0.228 (MW) /      1.826 (MB)
	Size of irrep 1 of <ia|bc> integrals:      0.111 (MW) /      0.885 (MB)
	Size of irrep 2 of <ia|bc> integrals:      0.134 (MW) /      1.068 (MB)
	Size of irrep 3 of <ia|bc> integrals:      0.199 (MW) /      1.591 (MB)
	Total:                                     0.671 (MW) /      5.371 (MB)

	Size of irrep 0 of <Ia|Bc> integrals:      0.228 (MW) /      1.826 (MB)
	Size of irrep 1 of <Ia|Bc> integrals:      0.111 (MW) /      0.885 (MB)
	Size of irrep 2 of <Ia|Bc> integrals:      0.134 (MW) /      1.068 (MB)
	Size of irrep 3 of <Ia|Bc> integrals:      0.199 (MW) /      1.591 (MB)
	Total:                                     0.671 (MW) /      5.371 (MB)

	Size of irrep 0 of <iA|bC> integrals:      0.228 (MW) /      1.826 (MB)
	Size of irrep 1 of <iA|bC> integrals:      0.111 (MW) /      0.885 (MB)
	Size of irrep 2 of <iA|bC> integrals:      0.134 (MW) /      1.068 (MB)
	Size of irrep 3 of <iA|bC> integrals:      0.199 (MW) /      1.591 (MB)
	Total:                                     0.671 (MW) /      5.371 (MB)

	Size of irrep 0 of tIjAb amplitudes:       0.013 (MW) /      0.102 (MB)
	Size of irrep 1 of tIjAb amplitudes:       0.003 (MW) /      0.026 (MB)
	Size of irrep 2 of tIjAb amplitudes:       0.007 (MW) /      0.055 (MB)
	Size of irrep 3 of tIjAb amplitudes:       0.008 (MW) /      0.066 (MB)
	Total:                                     0.031 (MW) /      0.250 (MB)

	Nuclear Rep. energy          =      9.15334389385846
	SCF energy                   =    -76.06026534691972
	One-electron energy          =    -41.49154780991965
	Two-electron (AA) energy     =      3.41818869475824
	Two-electron (BB) energy     =      3.41818869475824
	Two-electron (AB) energy     =     10.74817030566563
	Two-electron energy          =     17.58454769518212
	Reference energy             =    -76.06026534691981

*** tstop() called on c2-13.compute.lan at Mon Mar  8 09:44:43 2021
Module time:
	user time   =     186.37 seconds =       3.11 minutes
	system time =      11.38 seconds =       0.19 minutes
	total time  =         21 seconds =       0.35 minutes
Total time:
	user time   =     204.76 seconds =       3.41 minutes
	system time =      12.50 seconds =       0.21 minutes
	total time  =         24 seconds =       0.40 minutes
            **************************
            *                        *
            *        CCENERGY        *
            *                        *
            **************************

    Nuclear Rep. energy (wfn)     =    9.153343893858455
    SCF energy          (wfn)     =  -76.060265346919721
    Reference energy    (file100) =  -76.060265346919806

    Input parameters:
    -----------------
    Wave function   =     CCSD_T
    Reference wfn   =     UHF
    Brueckner       =     No
    Memory (Mbytes) =     4000.0
    Maxiter         =     50
    R_Convergence   =     1.0e-10
    E_Convergence   =     1.0e-10
    Restart         =     Yes
    DIIS            =     Yes
    AO Basis        =     NONE
    ABCD            =     NEW
    Cache Level     =     2
    Cache Type      =     LRU
    Print Level     =     1
    Num. of threads =     12
    # Amps to Print =     10
    Print MP2 Amps? =     No
    Analyze T2 Amps =     No
    Print Pair Ener =     No
    Local CC        =     No
    SCS-MP2         =     False
    SCSN-MP2        =     False
    SCS-CCSD        =     False

MP2 correlation energy -0.2687267751497003
                Solving CC Amplitude Equations
                ------------------------------
  Iter             Energy              RMS        T1Diag      D1Diag    New D1Diag    D2Diag
  ----     ---------------------    ---------   ----------  ----------  ----------   --------
     0        -0.268726775149700    0.000e+00    0.000000    0.000000    0.000000    0.000000
     1        -0.267211272256764    4.771e-02    0.012109    0.000000    0.000000    0.000000
     2        -0.272290020901272    1.315e-02    0.011884    0.000000    0.000000    0.000000
     3        -0.273510636683231    6.179e-03    0.013739    0.000000    0.000000    0.000000
     4        -0.273405986906996    1.243e-03    0.014063    0.000000    0.000000    0.000000
     5        -0.273389673943529    4.583e-04    0.014195    0.000000    0.000000    0.000000
     6        -0.273390556225568    1.142e-04    0.014225    0.000000    0.000000    0.000000
     7        -0.273389336977089    3.868e-05    0.014231    0.000000    0.000000    0.000000
     8        -0.273389378849351    1.059e-05    0.014233    0.000000    0.000000    0.000000
     9        -0.273389426015665    3.260e-06    0.014233    0.000000    0.000000    0.000000
    10        -0.273389305547950    1.318e-06    0.014233    0.000000    0.000000    0.000000
    11        -0.273389323364695    4.543e-07    0.014233    0.000000    0.000000    0.000000
    12        -0.273389318371352    1.696e-07    0.014233    0.000000    0.000000    0.000000
    13        -0.273389320149115    4.996e-08    0.014233    0.000000    0.000000    0.000000
    14        -0.273389321346047    1.325e-08    0.014233    0.000000    0.000000    0.000000
    15        -0.273389321396158    4.048e-09    0.014233    0.000000    0.000000    0.000000
    16        -0.273389321397977    1.236e-09    0.014233    0.000000    0.000000    0.000000
    17        -0.273389321406671    4.248e-10    0.014233    0.000000    0.000000    0.000000
    18        -0.273389321403629    1.100e-10    0.014233    0.000000    0.000000    0.000000
    19        -0.273389321403255    3.315e-11    0.014233    0.000000    0.000000    0.000000

    Iterations converged.


    Largest TIA Amplitudes:
              2  44        -0.0151292869
              2  45        -0.0130452375
              1   1         0.0085202920
              1   4        -0.0078079503
              3  73         0.0054437987
              2  54         0.0042784064
              3  69         0.0038011605
              2  47        -0.0036763183
              3  80         0.0036067117
              1  23         0.0033971736

    Largest Tia Amplitudes:
              2  44        -0.0151292869
              2  45        -0.0130452375
              1   1         0.0085202920
              1   4        -0.0078079503
              3  73         0.0054437987
              2  54         0.0042784064
              3  69         0.0038011605
              2  47        -0.0036763183
              3  80         0.0036067117
              1  23         0.0033971736

    Largest TIJAB Amplitudes:
      2   1  46   7        -0.0095662446
      3   1  66   6        -0.0093780264
      3   2  33   6        -0.0085677053
      3   1  65   9         0.0081158998
      2   1  49   9         0.0079441872
      3   2  65  49        -0.0076472457
      3   1  66  13         0.0074207338
      3   2  65  44        -0.0074199271
      2   1  48   9         0.0072605614
      3   2  65  45        -0.0071941003

    Largest Tijab Amplitudes:
      2   1  46   7        -0.0095662446
      3   1  66   6        -0.0093780264
      3   2  33   6        -0.0085677053
      3   1  65   9         0.0081158998
      2   1  49   9         0.0079441872
      3   2  65  49        -0.0076472457
      3   1  66  13         0.0074207338
      3   2  65  44        -0.0074199271
      2   1  48   9         0.0072605614
      3   2  65  45        -0.0071941003

    Largest TIjAb Amplitudes:
      3   3  65  65        -0.0216187336
      1   1   9   9        -0.0199229399
      2   2  49  49        -0.0156655215
      3   3  65  69        -0.0155606173
      3   3  69  65        -0.0155606173
      3   3  66  66        -0.0148732428
      1   1  66  66        -0.0137780005
      2   2  48  48        -0.0135006834
      3   3  69  69        -0.0131950742
      1   3   9  65         0.0128485616

    SCF energy       (wfn)                    =  -76.060265346919721
    Reference energy (file100)                =  -76.060265346919806

    Opposite-spin MP2 correlation energy      =   -0.203503007214834
    Same-spin MP2 correlation energy          =   -0.065223767934866
    MP2 correlation energy                    =   -0.268726775149700
      * MP2 total energy                      =  -76.328992122069508

    Opposite-spin CCSD correlation energy     =   -0.215489429519467
    Same-spin CCSD correlation energy         =   -0.057899891883788
    CCSD correlation energy                   =   -0.273389321403255
      * CCSD total energy                     =  -76.333654668323064

            **************************
            *                        *
            *        CCTRIPLES       *
            *                        *
            **************************


    Wave function   =    CCSD_T
    Reference wfn   =      UHF

    Nuclear Rep. energy (wfn)                =    9.153343893858455
    SCF energy          (wfn)                =  -76.060265346919721
    Reference energy    (file100)            =  -76.060265346919806
    CCSD energy         (file100)            =   -0.273389321403255
    Total CCSD energy   (file100)            =  -76.333654668323064

    Number of ijk index combinations:
    Spin Case AAA:                                   4
    Spin Case BBB:                                   4
    Spin Case AAB:                                  24
    Spin Case ABB:                                  24
    AAA (T) energy                             =   -0.000193530399462
    BBB (T) energy                             =   -0.000193530399462
    AAB (T) energy                             =   -0.004142044458202
    ABB (T) energy                             =   -0.004142044458202
    (T) energy                                   =   -0.008671149715328
      * CCSD(T) total energy                     =  -76.342325818038390

Stephenergy -76.34232581803839
    Psi4 stopped on: Monday, 08 March 2021 09:44AM
    Psi4 wall time for execution: 0:00:38.54

*** Psi4 exiting successfully. Buy a developer a beer!
