
    -----------------------------------------------------------------------
          Psi4: An Open-Source Ab Initio Electronic Structure Package
                               Psi4 1.3.2 release

                         Git: Rev {HEAD} ecbda83 


    R. M. Parrish, L. A. Burns, D. G. A. Smith, A. C. Simmonett,
    A. E. DePrince III, E. G. Hohenstein, U. Bozkaya, A. Yu. Sokolov,
    R. Di Remigio, R. M. Richard, J. F. Gonthier, A. M. James,
    H. R. McAlexander, A. Kumar, M. Saitow, X. Wang, B. P. Pritchard,
    P. Verma, H. F. Schaefer III, K. Patkowski, R. A. King, E. F. Valeev,
    F. A. Evangelista, J. M. Turney, T. D. Crawford, and C. D. Sherrill,
    J. Chem. Theory Comput. 13(7) pp 3185--3197 (2017).
    (doi: 10.1021/acs.jctc.7b00174)


                         Additional Contributions by
    P. Kraus, H. Kruse, M. H. Lechner, M. C. Schieber, R. A. Shaw,
    A. Alenaizan, R. Galvelis, Z. L. Glick, S. Lehtola, and J. P. Misiewicz

    -----------------------------------------------------------------------


    Psi4 started on: Monday, 08 March 2021 09:42AM

    Process ID: 111938
    Host:       c2-13.compute.lan
    PSIDATADIR: /apps/gb/PSI4/1.3.2/share/psi4
    Memory:     500.0 MiB
    Threads:    12
    
  ==> Input File <==

--------------------------------------------------------------------------
memory 4 GB

molecule  {
0 1
O    0.000000000000   -0.000000000000   -0.066001357600
H    0.000000000000   -0.758933255000    0.523744720500
H   -0.000000000000    0.758933255000    0.523744720500
}
set {
basis aug-cc-pvtz
reference uhf
e_convergence 10
scf_type pk
freeze_core true
}

set ccenergy {
e_convergence 10
r_convergence 10
}

e = energy('ccsd(t)')

print_out('Stephenergy {}'.format(e))

--------------------------------------------------------------------------

  Memory set to   3.725 GiB by Python driver.

*** tstart() called on c2-13.compute.lan
*** at Mon Mar  8 09:42:49 2021

   => Loading Basis Set <=

    Name: AUG-CC-PVTZ
    Role: ORBITAL
    Keyword: BASIS
    atoms 1   entry O          line   327 file /apps/gb/PSI4/1.3.2/share/psi4/basis/aug-cc-pvtz.gbs 
    atoms 2-3 entry H          line    36 file /apps/gb/PSI4/1.3.2/share/psi4/basis/aug-cc-pvtz.gbs 


         ---------------------------------------------------------
                                   SCF
               by Justin Turney, Rob Parrish, Andy Simmonett
                          and Daniel G. A. Smith
                              UHF Reference
                       12 Threads,   3814 MiB Core
         ---------------------------------------------------------

  ==> Geometry <==

    Molecular point group: c2v
    Full point group: C2v

    Geometry (in Angstrom), charge = 0, multiplicity = 1:

       Center              X                  Y                   Z               Mass       
    ------------   -----------------  -----------------  -----------------  -----------------
         O            0.000000000000     0.000000000000    -0.066001357603    15.994914619570
         H            0.000000000000    -0.758933255000     0.523744720497     1.007825032230
         H           -0.000000000000     0.758933255000     0.523744720497     1.007825032230

  Running in c2v symmetry.

  Rotational constants: A =     27.07676  B =     14.52025  C =      9.45167 [cm^-1]
  Rotational constants: A = 811740.73975  B = 435306.24349  C = 283354.04909 [MHz]
  Nuclear repulsion =    9.157839119439855

  Charge       = 0
  Multiplicity = 1
  Electrons    = 10
  Nalpha       = 5
  Nbeta        = 5

  ==> Algorithm <==

  SCF Algorithm Type is PK.
  DIIS enabled.
  MOM disabled.
  Fractional occupation disabled.
  Guess Type is SAD.
  Energy threshold   = 1.00e-10
  Density threshold  = 1.00e-08
  Integral threshold = 0.00e+00

  ==> Primary Basis <==

  Basis Set: AUG-CC-PVTZ
    Blend: AUG-CC-PVTZ
    Number of shells: 32
    Number of basis function: 92
    Number of Cartesian functions: 105
    Spherical Harmonics?: true
    Max angular momentum: 3

  ==> Pre-Iterations <==

   -------------------------------------------------------
    Irrep   Nso     Nmo     Nalpha   Nbeta   Ndocc  Nsocc
   -------------------------------------------------------
     A1        35      35       0       0       0       0
     A2        12      12       0       0       0       0
     B1        18      18       0       0       0       0
     B2        27      27       0       0       0       0
   -------------------------------------------------------
    Total      92      92       5       5       5       0
   -------------------------------------------------------

  ==> Integral Setup <==

  Using in-core PK algorithm.
   Calculation information:
      Number of atoms:                   3
      Number of AO shells:              32
      Number of primitives:             52
      Number of atomic orbitals:       105
      Number of basis functions:        92

      Integral cutoff                 1.00e-12
      Number of threads:                12

  Performing in-core PK
  Using 18305562 doubles for integral storage.
  We computed 240258 shell quartets total.
  Whereas there are 139656 unique shell quartets.
    72.04 percent of shell quartets recomputed by reordering.

  ==> DiskJK: Disk-Based J/K Matrices <==

    J tasked:                  Yes
    K tasked:                  Yes
    wK tasked:                  No
    Memory [MiB]:             2861
    Schwarz Cutoff:          1E-12

    OpenMP threads:             12

  Minimum eigenvalue in the overlap matrix is 3.8829897376E-04.
  Using Symmetric Orthogonalization.

  SCF Guess: Superposition of Atomic Densities via on-the-fly atomic UHF.

  ==> Iterations <==

                        Total Energy        Delta E     RMS |[F,P]|

   @UHF iter SAD:   -75.47379217320992   -7.54738e+01   0.00000e+00 
   @UHF iter   1:   -75.97589294275539   -5.02101e-01   9.51609e-03 DIIS
   @UHF iter   2:   -76.02833192626429   -5.24390e-02   6.49884e-03 DIIS
   @UHF iter   3:   -76.05989705433777   -3.15651e-02   4.41505e-04 DIIS
   @UHF iter   4:   -76.06028806492463   -3.91011e-04   1.06059e-04 DIIS
   @UHF iter   5:   -76.06031268013267   -2.46152e-05   2.40995e-05 DIIS
   @UHF iter   6:   -76.06031469641837   -2.01629e-06   5.28060e-06 DIIS
   @UHF iter   7:   -76.06031480285796   -1.06440e-07   9.51998e-07 DIIS
   @UHF iter   8:   -76.06031480589849   -3.04053e-09   1.59893e-07 DIIS
   @UHF iter   9:   -76.06031480596575   -6.72600e-11   3.93981e-08 DIIS
   @UHF iter  10:   -76.06031480596960   -3.85114e-12   5.75973e-09 DIIS
  Energy and wave function converged.


  ==> Post-Iterations <==

   @Spin Contamination Metric:   5.329070518E-15
   @S^2 Expected:                0.000000000E+00
   @S^2 Observed:                5.329070518E-15
   @S   Expected:                0.000000000E+00
   @S   Observed:                0.000000000E+00

    Orbital Energies [Eh]
    ---------------------

    Alpha Occupied:                                                       

       1A1   -20.567975     2A1    -1.351748     1B2    -0.715298  
       3A1    -0.584618     1B1    -0.510104  

    Alpha Virtual:                                                        

       4A1     0.029381     2B2     0.047682     5A1     0.135916  
       2B1     0.158741     6A1     0.175128     3B2     0.183035  
       4B2     0.227203     7A1     0.244904     1A2     0.265322  
       3B1     0.300213     8A1     0.310258     5B2     0.365757  
       9A1     0.437373     6B2     0.466076     7B2     0.599317  
      10A1     0.658288    11A1     0.708104     2A2     0.722490  
       4B1     0.731664    12A1     0.830394     5B1     0.846175  
      13A1     0.892073     8B2     0.912510     6B1     0.918490  
       3A2     0.922295     9B2     0.930638    14A1     0.961779  
      15A1     1.020941    10B2     1.043191     7B1     1.082602  
      11B2     1.108610     4A2     1.176009    16A1     1.181583  
      12B2     1.260897     5A2     1.510191    17A1     1.536360  
       8B1     1.583158    18A1     1.804903    13B2     1.818785  
      14B2     1.984677    19A1     2.117062     9B1     2.262470  
       6A2     2.315721    20A1     2.326470    21A1     2.418144  
      10B1     2.420263    15B2     2.442849    22A1     2.479132  
      16B2     2.677592    11B1     2.698146    23A1     2.770337  
      17B2     2.817123     7A2     2.883859    18B2     3.651791  
      24A1     3.742406     8A2     4.016779    12B1     4.082853  
      25A1     4.165851    19B2     4.246039    13B1     4.289232  
      26A1     4.375509     9A2     4.377155    14B1     4.404326  
      20B2     4.515996    27A1     4.723581    21B2     4.841261  
      22B2     5.145750    10A2     5.148358    23B2     5.251472  
      28A1     5.322577    15B1     5.519976    29A1     5.664047  
      30A1     6.175281    24B2     6.513873    16B1     6.708852  
      31A1     6.895128    17B1     7.131577    18B1     7.250934  
      25B2     7.302118    11A2     7.311030    32A1     7.326546  
      12A2     7.354663    33A1     7.531077    34A1     7.898669  
      26B2     7.920280    27B2     8.798075    35A1    15.712414  

    Beta Occupied:                                                        

       1A1   -20.567975     2A1    -1.351748     1B2    -0.715298  
       3A1    -0.584618     1B1    -0.510104  

    Beta Virtual:                                                         

       4A1     0.029381     2B2     0.047682     5A1     0.135916  
       2B1     0.158741     6A1     0.175128     3B2     0.183035  
       4B2     0.227203     7A1     0.244904     1A2     0.265322  
       3B1     0.300213     8A1     0.310258     5B2     0.365757  
       9A1     0.437373     6B2     0.466076     7B2     0.599317  
      10A1     0.658288    11A1     0.708104     2A2     0.722490  
       4B1     0.731664    12A1     0.830394     5B1     0.846175  
      13A1     0.892073     8B2     0.912510     6B1     0.918490  
       3A2     0.922295     9B2     0.930638    14A1     0.961779  
      15A1     1.020941    10B2     1.043191     7B1     1.082602  
      11B2     1.108610     4A2     1.176009    16A1     1.181583  
      12B2     1.260897     5A2     1.510191    17A1     1.536360  
       8B1     1.583158    18A1     1.804903    13B2     1.818785  
      14B2     1.984677    19A1     2.117062     9B1     2.262470  
       6A2     2.315721    20A1     2.326470    21A1     2.418144  
      10B1     2.420263    15B2     2.442849    22A1     2.479132  
      16B2     2.677592    11B1     2.698146    23A1     2.770337  
      17B2     2.817123     7A2     2.883859    18B2     3.651791  
      24A1     3.742406     8A2     4.016779    12B1     4.082853  
      25A1     4.165851    19B2     4.246039    13B1     4.289232  
      26A1     4.375509     9A2     4.377155    14B1     4.404326  
      20B2     4.515996    27A1     4.723581    21B2     4.841261  
      22B2     5.145750    10A2     5.148358    23B2     5.251472  
      28A1     5.322577    15B1     5.519976    29A1     5.664047  
      30A1     6.175281    24B2     6.513873    16B1     6.708852  
      31A1     6.895128    17B1     7.131577    18B1     7.250934  
      25B2     7.302118    11A2     7.311030    32A1     7.326546  
      12A2     7.354663    33A1     7.531077    34A1     7.898669  
      26B2     7.920280    27B2     8.798075    35A1    15.712414  

    Final Occupation by Irrep:
             A1    A2    B1    B2 
    DOCC [     3,    0,    1,    1 ]
    SOCC [     0,    0,    0,    0 ]

  @UHF Final Energy:   -76.06031480596960

   => Energetics <=

    Nuclear Repulsion Energy =              9.1578391194398545
    One-Electron Energy =                -122.9768245740832384
    Two-Electron Energy =                  37.7586706486737782
    Total Energy =                        -76.0603148059695968

  UHF NO Occupations:
  HONO-2 :    1 B1 2.0000000
  HONO-1 :    1 B2 2.0000000
  HONO-0 :    3 A1 2.0000000
  LUNO+0 :    4 A1 0.0000000
  LUNO+1 :    5 A1 0.0000000
  LUNO+2 :    6 A1 0.0000000
  LUNO+3 :    7 A1 0.0000000


Computation Completed


Properties will be evaluated at   0.000000,   0.000000,   0.000000 [a0]

Properties computed using the SCF density matrix

  Nuclear Dipole Moment: [e a0]
     X:     0.0000      Y:     0.0000      Z:     0.9817

  Electronic Dipole Moment: [e a0]
     X:     0.0000      Y:     0.0000      Z:    -0.1990

  Dipole Moment: [e a0]
     X:     0.0000      Y:     0.0000      Z:     0.7826     Total:     0.7826

  Dipole Moment: [D]
     X:     0.0000      Y:     0.0000      Z:     1.9893     Total:     1.9893


*** tstop() called on c2-13.compute.lan at Mon Mar  8 09:42:51 2021
Module time:
	user time   =      19.63 seconds =       0.33 minutes
	system time =       1.05 seconds =       0.02 minutes
	total time  =          2 seconds =       0.03 minutes
Total time:
	user time   =      19.63 seconds =       0.33 minutes
	system time =       1.05 seconds =       0.02 minutes
	total time  =          2 seconds =       0.03 minutes
 MINTS: Wrapper to libmints.
   by Justin Turney

   Calculation information:
      Number of threads:                12
      Number of atoms:                   3
      Number of AO shells:              32
      Number of SO shells:              23
      Number of primitives:             52
      Number of atomic orbitals:       105
      Number of basis functions:        92

      Number of irreps:                  4
      Integral cutoff                 0.00e+00
      Number of functions per irrep: [  35   12   18   27 ]

 OEINTS: Overlap, kinetic, potential, dipole, and quadrupole integrals
         stored in file 35.

      Computing two-electron integrals...done
      Computed 2239963 non-zero two-electron integrals.
        Stored in file 33.


*** tstart() called on c2-13.compute.lan
*** at Mon Mar  8 09:42:52 2021


	Wfn Parameters:
	--------------------
	Wavefunction         = CCSD_T
	Number of irreps     = 4
	Number of MOs        = 92
	Number of active MOs = 91
	AO-Basis             = NONE
	Semicanonical        = false
	Reference            = UHF
	Print Level          = 1

	IRREP	# MOs	# FZDC	# DOCC	# SOCC	# VIRT	# FZVR
	-----	-----	------	------	------	------	------
	 A1	   35	    1	    2	    0	    32	    0
	 A2	   12	    0	    0	    0	    12	    0
	 B1	   18	    0	    1	    0	    17	    0
	 B2	   27	    0	    1	    0	    26	    0
	Transforming integrals...
	IWL integrals will be deleted.
	(OO|OO)...
	Presorting SO-basis two-electron integrals.
	Sorting File: SO Ints (nn|nn) nbuckets = 1
	Transforming the one-electron integrals and constructing Fock matrices
	Starting AA/AB first half-transformation.
	Sorting AA/AB half-transformed integrals.
	Starting BB first half-transformation.
	Sorting BB half-transformed integrals.
	First half integral transformation complete.
	Starting AA second half-transformation.
	Starting AB second half-transformation.
	Starting BB second half-transformation.
	Two-electron integral transformation complete.
	(OO|OV)...
	Starting AA second half-transformation.
	Starting AB second half-transformation.
	Starting BB second half-transformation.
	Two-electron integral transformation complete.
	(OO|VV)...
	Starting AA second half-transformation.
	Starting AB second half-transformation.
	Starting BB second half-transformation.
	Two-electron integral transformation complete.
	(OV|OO)...
	Starting AA/AB first half-transformation.
	Sorting AA/AB half-transformed integrals.
	Starting BB first half-transformation.
	Sorting BB half-transformed integrals.
	First half integral transformation complete.
	Starting AA second half-transformation.
	Starting AB second half-transformation.
	Starting BB second half-transformation.
	Two-electron integral transformation complete.
	(OV|OV)...
	Starting AA second half-transformation.
	Starting AB second half-transformation.
	Starting BB second half-transformation.
	Two-electron integral transformation complete.
	(OV|VV)...
	Starting AA second half-transformation.
	Starting AB second half-transformation.
	Starting BB second half-transformation.
	Two-electron integral transformation complete.
	(VV|OO)...
	Starting AA/AB first half-transformation.
	Sorting AA/AB half-transformed integrals.
	Starting BB first half-transformation.
	Sorting BB half-transformed integrals.
	First half integral transformation complete.
	Starting AA second half-transformation.
	Starting AB second half-transformation.
	Starting BB second half-transformation.
	Two-electron integral transformation complete.
	(VV|OV)...
	Starting AA second half-transformation.
	Starting AB second half-transformation.
	Starting BB second half-transformation.
	Two-electron integral transformation complete.
	(VV|VV)...
	Starting AA second half-transformation.
	Starting AB second half-transformation.
	Starting BB second half-transformation.
	Two-electron integral transformation complete.
	Frozen core energy     =    -61.30775975587453

	Size of irrep 0 of <AB|CD> integrals:      1.047 (MW) /      8.372 (MB)
	Size of irrep 1 of <AB|CD> integrals:      0.682 (MW) /      5.458 (MB)
	Size of irrep 2 of <AB|CD> integrals:      0.733 (MW) /      5.862 (MB)
	Size of irrep 3 of <AB|CD> integrals:      1.073 (MW) /      8.586 (MB)
	Total:                                     3.535 (MW) /     28.279 (MB)

	Size of irrep 0 of <ab|cd> integrals:      1.047 (MW) /      8.372 (MB)
	Size of irrep 1 of <ab|cd> integrals:      0.682 (MW) /      5.458 (MB)
	Size of irrep 2 of <ab|cd> integrals:      0.733 (MW) /      5.862 (MB)
	Size of irrep 3 of <ab|cd> integrals:      1.073 (MW) /      8.586 (MB)
	Total:                                     3.535 (MW) /     28.279 (MB)

	Size of irrep 0 of <Ab|Cd> integrals:      4.550 (MW) /     36.398 (MB)
	Size of irrep 1 of <Ab|Cd> integrals:      2.729 (MW) /     21.833 (MB)
	Size of irrep 2 of <Ab|Cd> integrals:      2.931 (MW) /     23.448 (MB)
	Size of irrep 3 of <Ab|Cd> integrals:      4.293 (MW) /     34.345 (MB)
	Total:                                    14.503 (MW) /    116.023 (MB)

	Size of irrep 0 of <IA|BC> integrals:      0.228 (MW) /      1.826 (MB)
	Size of irrep 1 of <IA|BC> integrals:      0.111 (MW) /      0.885 (MB)
	Size of irrep 2 of <IA|BC> integrals:      0.134 (MW) /      1.068 (MB)
	Size of irrep 3 of <IA|BC> integrals:      0.199 (MW) /      1.591 (MB)
	Total:                                     0.671 (MW) /      5.371 (MB)

	Size of irrep 0 of <ia|bc> integrals:      0.228 (MW) /      1.826 (MB)
	Size of irrep 1 of <ia|bc> integrals:      0.111 (MW) /      0.885 (MB)
	Size of irrep 2 of <ia|bc> integrals:      0.134 (MW) /      1.068 (MB)
	Size of irrep 3 of <ia|bc> integrals:      0.199 (MW) /      1.591 (MB)
	Total:                                     0.671 (MW) /      5.371 (MB)

	Size of irrep 0 of <Ia|Bc> integrals:      0.228 (MW) /      1.826 (MB)
	Size of irrep 1 of <Ia|Bc> integrals:      0.111 (MW) /      0.885 (MB)
	Size of irrep 2 of <Ia|Bc> integrals:      0.134 (MW) /      1.068 (MB)
	Size of irrep 3 of <Ia|Bc> integrals:      0.199 (MW) /      1.591 (MB)
	Total:                                     0.671 (MW) /      5.371 (MB)

	Size of irrep 0 of <iA|bC> integrals:      0.228 (MW) /      1.826 (MB)
	Size of irrep 1 of <iA|bC> integrals:      0.111 (MW) /      0.885 (MB)
	Size of irrep 2 of <iA|bC> integrals:      0.134 (MW) /      1.068 (MB)
	Size of irrep 3 of <iA|bC> integrals:      0.199 (MW) /      1.591 (MB)
	Total:                                     0.671 (MW) /      5.371 (MB)

	Size of irrep 0 of tIjAb amplitudes:       0.013 (MW) /      0.102 (MB)
	Size of irrep 1 of tIjAb amplitudes:       0.003 (MW) /      0.026 (MB)
	Size of irrep 2 of tIjAb amplitudes:       0.007 (MW) /      0.055 (MB)
	Size of irrep 3 of tIjAb amplitudes:       0.008 (MW) /      0.066 (MB)
	Total:                                     0.031 (MW) /      0.250 (MB)

	Nuclear Rep. energy          =      9.15783911943985
	SCF energy                   =    -76.06031480596960
	One-electron energy          =    -41.49725382491838
	Two-electron (AA) energy     =      3.41863497288756
	Two-electron (BB) energy     =      3.41863497288756
	Two-electron (AB) energy     =     10.74958970960817
	Two-electron energy          =     17.58685965538329
	Reference energy             =    -76.06031480596977

*** tstop() called on c2-13.compute.lan at Mon Mar  8 09:43:15 2021
Module time:
	user time   =     189.43 seconds =       3.16 minutes
	system time =      11.83 seconds =       0.20 minutes
	total time  =         23 seconds =       0.38 minutes
Total time:
	user time   =     213.40 seconds =       3.56 minutes
	system time =      13.19 seconds =       0.22 minutes
	total time  =         26 seconds =       0.43 minutes
            **************************
            *                        *
            *        CCENERGY        *
            *                        *
            **************************

    Nuclear Rep. energy (wfn)     =    9.157839119439855
    SCF energy          (wfn)     =  -76.060314805969597
    Reference energy    (file100) =  -76.060314805969767

    Input parameters:
    -----------------
    Wave function   =     CCSD_T
    Reference wfn   =     UHF
    Brueckner       =     No
    Memory (Mbytes) =     4000.0
    Maxiter         =     50
    R_Convergence   =     1.0e-10
    E_Convergence   =     1.0e-10
    Restart         =     Yes
    DIIS            =     Yes
    AO Basis        =     NONE
    ABCD            =     NEW
    Cache Level     =     2
    Cache Type      =     LRU
    Print Level     =     1
    Num. of threads =     12
    # Amps to Print =     10
    Print MP2 Amps? =     No
    Analyze T2 Amps =     No
    Print Pair Ener =     No
    Local CC        =     No
    SCS-MP2         =     False
    SCSN-MP2        =     False
    SCS-CCSD        =     False

MP2 correlation energy -0.2686767000870576
                Solving CC Amplitude Equations
                ------------------------------
  Iter             Energy              RMS        T1Diag      D1Diag    New D1Diag    D2Diag
  ----     ---------------------    ---------   ----------  ----------  ----------   --------
     0        -0.268676700087058    0.000e+00    0.000000    0.000000    0.000000    0.000000
     1        -0.267175359461022    4.767e-02    0.012098    0.000000    0.000000    0.000000
     2        -0.272247704166301    1.313e-02    0.011874    0.000000    0.000000    0.000000
     3        -0.273466383262698    6.170e-03    0.013726    0.000000    0.000000    0.000000
     4        -0.273361833111771    1.241e-03    0.014049    0.000000    0.000000    0.000000
     5        -0.273345519761970    4.576e-04    0.014182    0.000000    0.000000    0.000000
     6        -0.273346403488084    1.140e-04    0.014211    0.000000    0.000000    0.000000
     7        -0.273345187324091    3.861e-05    0.014217    0.000000    0.000000    0.000000
     8        -0.273345228767770    1.057e-05    0.014219    0.000000    0.000000    0.000000
     9        -0.273345276145081    3.255e-06    0.014220    0.000000    0.000000    0.000000
    10        -0.273345155897420    1.316e-06    0.014220    0.000000    0.000000    0.000000
    11        -0.273345173693807    4.538e-07    0.014220    0.000000    0.000000    0.000000
    12        -0.273345168731293    1.693e-07    0.014220    0.000000    0.000000    0.000000
    13        -0.273345170505164    4.986e-08    0.014220    0.000000    0.000000    0.000000
    14        -0.273345171700317    1.323e-08    0.014220    0.000000    0.000000    0.000000
    15        -0.273345171749930    4.045e-09    0.014220    0.000000    0.000000    0.000000
    16        -0.273345171751375    1.236e-09    0.014220    0.000000    0.000000    0.000000
    17        -0.273345171759935    4.249e-10    0.014220    0.000000    0.000000    0.000000
    18        -0.273345171756859    1.099e-10    0.014220    0.000000    0.000000    0.000000
    19        -0.273345171756474    3.312e-11    0.014220    0.000000    0.000000    0.000000

    Iterations converged.


    Largest TIA Amplitudes:
              2  44        -0.0151108827
              2  45        -0.0130301243
              1   1         0.0085216513
              1   4        -0.0078143912
              3  73         0.0054388716
              2  54         0.0042770853
              3  69         0.0037952082
              2  47        -0.0036778412
              3  80         0.0035996173
              1  23         0.0033957872

    Largest Tia Amplitudes:
              2  44        -0.0151108827
              2  45        -0.0130301243
              1   1         0.0085216513
              1   4        -0.0078143912
              3  73         0.0054388716
              2  54         0.0042770853
              3  69         0.0037952082
              2  47        -0.0036778412
              3  80         0.0035996173
              1  23         0.0033957872

    Largest TIJAB Amplitudes:
      2   1  46   7        -0.0095640984
      3   1  66   6        -0.0093778298
      3   2  33   6        -0.0085787938
      3   1  65   9         0.0081187999
      2   1  49   9         0.0079432983
      3   2  65  49        -0.0076353014
      3   1  66  13         0.0074205453
      3   2  65  44        -0.0074126403
      2   1  48   9         0.0072697129
      3   2  65  45        -0.0071891932

    Largest Tijab Amplitudes:
      2   1  46   7        -0.0095640984
      3   1  66   6        -0.0093778298
      3   2  33   6        -0.0085787938
      3   1  65   9         0.0081187999
      2   1  49   9         0.0079432983
      3   2  65  49        -0.0076353014
      3   1  66  13         0.0074205453
      3   2  65  44        -0.0074126403
      2   1  48   9         0.0072697129
      3   2  65  45        -0.0071891932

    Largest TIjAb Amplitudes:
      3   3  65  65        -0.0215575756
      1   1   9   9        -0.0199465211
      2   2  49  49        -0.0156442374
      3   3  65  69        -0.0155414844
      3   3  69  65        -0.0155414844
      3   3  66  66        -0.0148735824
      1   1  66  66        -0.0137871133
      2   2  48  48        -0.0135020580
      3   3  69  69        -0.0132043933
      1   3   9  65         0.0128468216

    SCF energy       (wfn)                    =  -76.060314805969597
    Reference energy (file100)                =  -76.060314805969767

    Opposite-spin MP2 correlation energy      =   -0.203464801450392
    Same-spin MP2 correlation energy          =   -0.065211898636666
    MP2 correlation energy                    =   -0.268676700087058
      * MP2 total energy                      =  -76.328991506056823

    Opposite-spin CCSD correlation energy     =   -0.215449056387881
    Same-spin CCSD correlation energy         =   -0.057896115368593
    CCSD correlation energy                   =   -0.273345171756474
      * CCSD total energy                     =  -76.333659977726242

            **************************
            *                        *
            *        CCTRIPLES       *
            *                        *
            **************************


    Wave function   =    CCSD_T
    Reference wfn   =      UHF

    Nuclear Rep. energy (wfn)                =    9.157839119439855
    SCF energy          (wfn)                =  -76.060314805969597
    Reference energy    (file100)            =  -76.060314805969767
    CCSD energy         (file100)            =   -0.273345171756474
    Total CCSD energy   (file100)            =  -76.333659977726242

    Number of ijk index combinations:
    Spin Case AAA:                                   4
    Spin Case BBB:                                   4
    Spin Case AAB:                                  24
    Spin Case ABB:                                  24
    AAA (T) energy                             =   -0.000193448663371
    BBB (T) energy                             =   -0.000193448663371
    AAB (T) energy                             =   -0.004139162977114
    ABB (T) energy                             =   -0.004139162977114
    (T) energy                                   =   -0.008665223280970
      * CCSD(T) total energy                     =  -76.342325201007213

Stephenergy -76.34232520100721
    Psi4 stopped on: Monday, 08 March 2021 09:43AM
    Psi4 wall time for execution: 0:00:36.23

*** Psi4 exiting successfully. Buy a developer a beer!
