
    -----------------------------------------------------------------------
          Psi4: An Open-Source Ab Initio Electronic Structure Package
                               Psi4 1.3.2 release

                         Git: Rev {HEAD} ecbda83 


    R. M. Parrish, L. A. Burns, D. G. A. Smith, A. C. Simmonett,
    A. E. DePrince III, E. G. Hohenstein, U. Bozkaya, A. Yu. Sokolov,
    R. Di Remigio, R. M. Richard, J. F. Gonthier, A. M. James,
    H. R. McAlexander, A. Kumar, M. Saitow, X. Wang, B. P. Pritchard,
    P. Verma, H. F. Schaefer III, K. Patkowski, R. A. King, E. F. Valeev,
    F. A. Evangelista, J. M. Turney, T. D. Crawford, and C. D. Sherrill,
    J. Chem. Theory Comput. 13(7) pp 3185--3197 (2017).
    (doi: 10.1021/acs.jctc.7b00174)


                         Additional Contributions by
    P. Kraus, H. Kruse, M. H. Lechner, M. C. Schieber, R. A. Shaw,
    A. Alenaizan, R. Galvelis, Z. L. Glick, S. Lehtola, and J. P. Misiewicz

    -----------------------------------------------------------------------


    Psi4 started on: Monday, 08 March 2021 09:39AM

    Process ID: 44056
    Host:       c2-22.compute.lan
    PSIDATADIR: /apps/gb/PSI4/1.3.2/share/psi4
    Memory:     500.0 MiB
    Threads:    12
    
  ==> Input File <==

--------------------------------------------------------------------------
memory 4 GB

molecule  {
0 1
O    0.000000000000    0.000000000000   -0.072182585265
H    0.000000000000   -0.766000000000    0.572795004794
H   -0.000000000000    0.766000000000    0.572795004794
}
set {
basis aug-cc-pvtz
reference uhf
e_convergence 10
scf_type pk
freeze_core true
}

set ccenergy {
e_convergence 10
r_convergence 10
}

e = energy('ccsd(t)')

print_out('Stephenergy {}'.format(e))

--------------------------------------------------------------------------

  Memory set to   3.725 GiB by Python driver.

*** tstart() called on c2-22.compute.lan
*** at Mon Mar  8 09:39:49 2021

   => Loading Basis Set <=

    Name: AUG-CC-PVTZ
    Role: ORBITAL
    Keyword: BASIS
    atoms 1   entry O          line   327 file /apps/gb/PSI4/1.3.2/share/psi4/basis/aug-cc-pvtz.gbs 
    atoms 2-3 entry H          line    36 file /apps/gb/PSI4/1.3.2/share/psi4/basis/aug-cc-pvtz.gbs 


         ---------------------------------------------------------
                                   SCF
               by Justin Turney, Rob Parrish, Andy Simmonett
                          and Daniel G. A. Smith
                              UHF Reference
                       12 Threads,   3814 MiB Core
         ---------------------------------------------------------

  ==> Geometry <==

    Molecular point group: c2v
    Full point group: C2v

    Geometry (in Angstrom), charge = 0, multiplicity = 1:

       Center              X                  Y                   Z               Mass       
    ------------   -----------------  -----------------  -----------------  -----------------
         O            0.000000000000     0.000000000000    -0.072182585265    15.994914619570
         H            0.000000000000    -0.766000000000     0.572795004794     1.007825032230
         H           -0.000000000000     0.766000000000     0.572795004794     1.007825032230

  Running in c2v symmetry.

  Rotational constants: A =     22.63797  B =     14.25358  C =      8.74650 [cm^-1]
  Rotational constants: A = 678669.31774  B = 427311.44332  C = 262213.57180 [MHz]
  Nuclear repulsion =    8.800624543932141

  Charge       = 0
  Multiplicity = 1
  Electrons    = 10
  Nalpha       = 5
  Nbeta        = 5

  ==> Algorithm <==

  SCF Algorithm Type is PK.
  DIIS enabled.
  MOM disabled.
  Fractional occupation disabled.
  Guess Type is SAD.
  Energy threshold   = 1.00e-10
  Density threshold  = 1.00e-08
  Integral threshold = 0.00e+00

  ==> Primary Basis <==

  Basis Set: AUG-CC-PVTZ
    Blend: AUG-CC-PVTZ
    Number of shells: 32
    Number of basis function: 92
    Number of Cartesian functions: 105
    Spherical Harmonics?: true
    Max angular momentum: 3

  ==> Pre-Iterations <==

   -------------------------------------------------------
    Irrep   Nso     Nmo     Nalpha   Nbeta   Ndocc  Nsocc
   -------------------------------------------------------
     A1        35      35       0       0       0       0
     A2        12      12       0       0       0       0
     B1        18      18       0       0       0       0
     B2        27      27       0       0       0       0
   -------------------------------------------------------
    Total      92      92       5       5       5       0
   -------------------------------------------------------

  ==> Integral Setup <==

  Using in-core PK algorithm.
   Calculation information:
      Number of atoms:                   3
      Number of AO shells:              32
      Number of primitives:             52
      Number of atomic orbitals:       105
      Number of basis functions:        92

      Integral cutoff                 1.00e-12
      Number of threads:                12

  Performing in-core PK
  Using 18305562 doubles for integral storage.
  We computed 240258 shell quartets total.
  Whereas there are 139656 unique shell quartets.
    72.04 percent of shell quartets recomputed by reordering.

  ==> DiskJK: Disk-Based J/K Matrices <==

    J tasked:                  Yes
    K tasked:                  Yes
    wK tasked:                  No
    Memory [MiB]:             2861
    Schwarz Cutoff:          1E-12

    OpenMP threads:             12

  Minimum eigenvalue in the overlap matrix is 4.3230373441E-04.
  Using Symmetric Orthogonalization.

  SCF Guess: Superposition of Atomic Densities via on-the-fly atomic UHF.

  ==> Iterations <==

                        Total Energy        Delta E     RMS |[F,P]|

   @UHF iter SAD:   -75.43086596107571   -7.54309e+01   0.00000e+00 
   @UHF iter   1:   -75.96664903473018   -5.35783e-01   9.46913e-03 DIIS
   @UHF iter   2:   -76.01786029610970   -5.12113e-02   6.80466e-03 DIIS
   @UHF iter   3:   -76.05324097838594   -3.53807e-02   4.64312e-04 DIIS
   @UHF iter   4:   -76.05368827287452   -4.47294e-04   1.21792e-04 DIIS
   @UHF iter   5:   -76.05372328892308   -3.50160e-05   2.89609e-05 DIIS
   @UHF iter   6:   -76.05372634325163   -3.05433e-06   6.20710e-06 DIIS
   @UHF iter   7:   -76.05372649119528   -1.47944e-07   1.01150e-06 DIIS
   @UHF iter   8:   -76.05372649450781   -3.31254e-09   1.77439e-07 DIIS
   @UHF iter   9:   -76.05372649458839   -8.05755e-11   4.38893e-08 DIIS
   @UHF iter  10:   -76.05372649459409   -5.69855e-12   7.25399e-09 DIIS
  Energy and wave function converged.


  ==> Post-Iterations <==

   @Spin Contamination Metric:   1.687538997E-14
   @S^2 Expected:                0.000000000E+00
   @S^2 Observed:                1.687538997E-14
   @S   Expected:                0.000000000E+00
   @S   Observed:                0.000000000E+00

    Orbital Energies [Eh]
    ---------------------

    Alpha Occupied:                                                       

       1A1   -20.576901     2A1    -1.335149     1B2    -0.685710  
       3A1    -0.585506     1B1    -0.508401  

    Alpha Virtual:                                                        

       4A1     0.028532     2B2     0.047803     5A1     0.134917  
       2B1     0.161339     6A1     0.174631     3B2     0.184075  
       4B2     0.221622     7A1     0.243739     1A2     0.266872  
       3B1     0.293754     8A1     0.306298     5B2     0.364856  
       9A1     0.428979     6B2     0.456862     7B2     0.594645  
      10A1     0.659292    11A1     0.702385     2A2     0.727274  
       4B1     0.732391    12A1     0.822070     5B1     0.847119  
      13A1     0.902213     8B2     0.903149     6B1     0.917125  
       3A2     0.919641     9B2     0.930004    14A1     0.948972  
      15A1     1.005606    10B2     1.030077     7B1     1.074217  
      11B2     1.097202     4A2     1.170442    16A1     1.175613  
      12B2     1.277258     5A2     1.493922    17A1     1.506459  
       8B1     1.549221    13B2     1.820895    18A1     1.831129  
      14B2     1.924025    19A1     2.084744     9B1     2.260386  
       6A2     2.305726    20A1     2.333422    21A1     2.414867  
      10B1     2.414874    15B2     2.443490    22A1     2.501856  
      16B2     2.697241    11B1     2.701784    23A1     2.750098  
      17B2     2.769702     7A2     2.862092    18B2     3.601148  
      24A1     3.643859     8A2     4.006268    12B1     4.036048  
      25A1     4.089172    19B2     4.208345    13B1     4.214347  
      26A1     4.346537     9A2     4.355856    14B1     4.379609  
      20B2     4.492226    27A1     4.684392    21B2     4.748029  
      10A2     5.029587    22B2     5.087527    28A1     5.165804  
      23B2     5.193967    15B1     5.413442    29A1     5.540876  
      30A1     6.174190    24B2     6.498562    16B1     6.694795  
      31A1     6.867858    17B1     7.063261    25B2     7.139698  
      11A2     7.218519    18B1     7.244111    12A2     7.344091  
      32A1     7.349195    33A1     7.416033    34A1     7.794776  
      26B2     7.845341    27B2     8.615269    35A1    14.539471  

    Beta Occupied:                                                        

       1A1   -20.576901     2A1    -1.335149     1B2    -0.685710  
       3A1    -0.585506     1B1    -0.508401  

    Beta Virtual:                                                         

       4A1     0.028532     2B2     0.047803     5A1     0.134917  
       2B1     0.161339     6A1     0.174631     3B2     0.184075  
       4B2     0.221622     7A1     0.243739     1A2     0.266872  
       3B1     0.293754     8A1     0.306298     5B2     0.364856  
       9A1     0.428979     6B2     0.456862     7B2     0.594645  
      10A1     0.659292    11A1     0.702385     2A2     0.727274  
       4B1     0.732391    12A1     0.822070     5B1     0.847119  
      13A1     0.902213     8B2     0.903149     6B1     0.917125  
       3A2     0.919641     9B2     0.930004    14A1     0.948972  
      15A1     1.005606    10B2     1.030077     7B1     1.074217  
      11B2     1.097202     4A2     1.170442    16A1     1.175613  
      12B2     1.277258     5A2     1.493922    17A1     1.506459  
       8B1     1.549221    13B2     1.820895    18A1     1.831129  
      14B2     1.924025    19A1     2.084744     9B1     2.260386  
       6A2     2.305726    20A1     2.333422    21A1     2.414867  
      10B1     2.414874    15B2     2.443490    22A1     2.501856  
      16B2     2.697241    11B1     2.701784    23A1     2.750098  
      17B2     2.769702     7A2     2.862092    18B2     3.601148  
      24A1     3.643859     8A2     4.006268    12B1     4.036048  
      25A1     4.089172    19B2     4.208345    13B1     4.214347  
      26A1     4.346537     9A2     4.355856    14B1     4.379609  
      20B2     4.492226    27A1     4.684392    21B2     4.748029  
      10A2     5.029587    22B2     5.087527    28A1     5.165804  
      23B2     5.193967    15B1     5.413442    29A1     5.540876  
      30A1     6.174190    24B2     6.498562    16B1     6.694795  
      31A1     6.867858    17B1     7.063261    25B2     7.139698  
      11A2     7.218519    18B1     7.244111    12A2     7.344091  
      32A1     7.349195    33A1     7.416033    34A1     7.794776  
      26B2     7.845341    27B2     8.615269    35A1    14.539471  

    Final Occupation by Irrep:
             A1    A2    B1    B2 
    DOCC [     3,    0,    1,    1 ]
    SOCC [     0,    0,    0,    0 ]

  @UHF Final Energy:   -76.05372649459409

   => Energetics <=

    Nuclear Repulsion Energy =              8.8006245439321411
    One-Electron Energy =                -122.3253688079496726
    Two-Electron Energy =                  37.4710177694234403
    Total Energy =                        -76.0537264945940876

  UHF NO Occupations:
  HONO-2 :    2 A1 2.0000000
  HONO-1 :    1 B1 2.0000000
  HONO-0 :    3 A1 2.0000000
  LUNO+0 :    4 A1 0.0000000
  LUNO+1 :    5 A1 0.0000000
  LUNO+2 :    6 A1 0.0000000
  LUNO+3 :    2 B2 0.0000000


Computation Completed


Properties will be evaluated at   0.000000,   0.000000,   0.000000 [a0]

Properties computed using the SCF density matrix

  Nuclear Dipole Moment: [e a0]
     X:     0.0000      Y:     0.0000      Z:     1.0736

  Electronic Dipole Moment: [e a0]
     X:     0.0000      Y:     0.0000      Z:    -0.2490

  Dipole Moment: [e a0]
     X:     0.0000      Y:     0.0000      Z:     0.8246     Total:     0.8246

  Dipole Moment: [D]
     X:     0.0000      Y:     0.0000      Z:     2.0959     Total:     2.0959


*** tstop() called on c2-22.compute.lan at Mon Mar  8 09:39:51 2021
Module time:
	user time   =      15.44 seconds =       0.26 minutes
	system time =       0.86 seconds =       0.01 minutes
	total time  =          2 seconds =       0.03 minutes
Total time:
	user time   =      15.44 seconds =       0.26 minutes
	system time =       0.86 seconds =       0.01 minutes
	total time  =          2 seconds =       0.03 minutes
 MINTS: Wrapper to libmints.
   by Justin Turney

   Calculation information:
      Number of threads:                12
      Number of atoms:                   3
      Number of AO shells:              32
      Number of SO shells:              23
      Number of primitives:             52
      Number of atomic orbitals:       105
      Number of basis functions:        92

      Number of irreps:                  4
      Integral cutoff                 0.00e+00
      Number of functions per irrep: [  35   12   18   27 ]

 OEINTS: Overlap, kinetic, potential, dipole, and quadrupole integrals
         stored in file 35.

      Computing two-electron integrals...done
      Computed 2214255 non-zero two-electron integrals.
        Stored in file 33.


*** tstart() called on c2-22.compute.lan
*** at Mon Mar  8 09:39:52 2021


	Wfn Parameters:
	--------------------
	Wavefunction         = CCSD_T
	Number of irreps     = 4
	Number of MOs        = 92
	Number of active MOs = 91
	AO-Basis             = NONE
	Semicanonical        = false
	Reference            = UHF
	Print Level          = 1

	IRREP	# MOs	# FZDC	# DOCC	# SOCC	# VIRT	# FZVR
	-----	-----	------	------	------	------	------
	 A1	   35	    1	    2	    0	    32	    0
	 A2	   12	    0	    0	    0	    12	    0
	 B1	   18	    0	    1	    0	    17	    0
	 B2	   27	    0	    1	    0	    26	    0
	Transforming integrals...
	IWL integrals will be deleted.
	(OO|OO)...
	Presorting SO-basis two-electron integrals.
	Sorting File: SO Ints (nn|nn) nbuckets = 1
	Transforming the one-electron integrals and constructing Fock matrices
	Starting AA/AB first half-transformation.
	Sorting AA/AB half-transformed integrals.
	Starting BB first half-transformation.
	Sorting BB half-transformed integrals.
	First half integral transformation complete.
	Starting AA second half-transformation.
	Starting AB second half-transformation.
	Starting BB second half-transformation.
	Two-electron integral transformation complete.
	(OO|OV)...
	Starting AA second half-transformation.
	Starting AB second half-transformation.
	Starting BB second half-transformation.
	Two-electron integral transformation complete.
	(OO|VV)...
	Starting AA second half-transformation.
	Starting AB second half-transformation.
	Starting BB second half-transformation.
	Two-electron integral transformation complete.
	(OV|OO)...
	Starting AA/AB first half-transformation.
	Sorting AA/AB half-transformed integrals.
	Starting BB first half-transformation.
	Sorting BB half-transformed integrals.
	First half integral transformation complete.
	Starting AA second half-transformation.
	Starting AB second half-transformation.
	Starting BB second half-transformation.
	Two-electron integral transformation complete.
	(OV|OV)...
	Starting AA second half-transformation.
	Starting AB second half-transformation.
	Starting BB second half-transformation.
	Two-electron integral transformation complete.
	(OV|VV)...
	Starting AA second half-transformation.
	Starting AB second half-transformation.
	Starting BB second half-transformation.
	Two-electron integral transformation complete.
	(VV|OO)...
	Starting AA/AB first half-transformation.
	Sorting AA/AB half-transformed integrals.
	Starting BB first half-transformation.
	Sorting BB half-transformed integrals.
	First half integral transformation complete.
	Starting AA second half-transformation.
	Starting AB second half-transformation.
	Starting BB second half-transformation.
	Two-electron integral transformation complete.
	(VV|OV)...
	Starting AA second half-transformation.
	Starting AB second half-transformation.
	Starting BB second half-transformation.
	Two-electron integral transformation complete.
	(VV|VV)...
	Starting AA second half-transformation.
	Starting AB second half-transformation.
	Starting BB second half-transformation.
	Two-electron integral transformation complete.
	Frozen core energy     =    -61.21936365588328

	Size of irrep 0 of <AB|CD> integrals:      1.047 (MW) /      8.372 (MB)
	Size of irrep 1 of <AB|CD> integrals:      0.682 (MW) /      5.458 (MB)
	Size of irrep 2 of <AB|CD> integrals:      0.733 (MW) /      5.862 (MB)
	Size of irrep 3 of <AB|CD> integrals:      1.073 (MW) /      8.586 (MB)
	Total:                                     3.535 (MW) /     28.279 (MB)

	Size of irrep 0 of <ab|cd> integrals:      1.047 (MW) /      8.372 (MB)
	Size of irrep 1 of <ab|cd> integrals:      0.682 (MW) /      5.458 (MB)
	Size of irrep 2 of <ab|cd> integrals:      0.733 (MW) /      5.862 (MB)
	Size of irrep 3 of <ab|cd> integrals:      1.073 (MW) /      8.586 (MB)
	Total:                                     3.535 (MW) /     28.279 (MB)

	Size of irrep 0 of <Ab|Cd> integrals:      4.550 (MW) /     36.398 (MB)
	Size of irrep 1 of <Ab|Cd> integrals:      2.729 (MW) /     21.833 (MB)
	Size of irrep 2 of <Ab|Cd> integrals:      2.931 (MW) /     23.448 (MB)
	Size of irrep 3 of <Ab|Cd> integrals:      4.293 (MW) /     34.345 (MB)
	Total:                                    14.503 (MW) /    116.023 (MB)

	Size of irrep 0 of <IA|BC> integrals:      0.228 (MW) /      1.826 (MB)
	Size of irrep 1 of <IA|BC> integrals:      0.111 (MW) /      0.885 (MB)
	Size of irrep 2 of <IA|BC> integrals:      0.134 (MW) /      1.068 (MB)
	Size of irrep 3 of <IA|BC> integrals:      0.199 (MW) /      1.591 (MB)
	Total:                                     0.671 (MW) /      5.371 (MB)

	Size of irrep 0 of <ia|bc> integrals:      0.228 (MW) /      1.826 (MB)
	Size of irrep 1 of <ia|bc> integrals:      0.111 (MW) /      0.885 (MB)
	Size of irrep 2 of <ia|bc> integrals:      0.134 (MW) /      1.068 (MB)
	Size of irrep 3 of <ia|bc> integrals:      0.199 (MW) /      1.591 (MB)
	Total:                                     0.671 (MW) /      5.371 (MB)

	Size of irrep 0 of <Ia|Bc> integrals:      0.228 (MW) /      1.826 (MB)
	Size of irrep 1 of <Ia|Bc> integrals:      0.111 (MW) /      0.885 (MB)
	Size of irrep 2 of <Ia|Bc> integrals:      0.134 (MW) /      1.068 (MB)
	Size of irrep 3 of <Ia|Bc> integrals:      0.199 (MW) /      1.591 (MB)
	Total:                                     0.671 (MW) /      5.371 (MB)

	Size of irrep 0 of <iA|bC> integrals:      0.228 (MW) /      1.826 (MB)
	Size of irrep 1 of <iA|bC> integrals:      0.111 (MW) /      0.885 (MB)
	Size of irrep 2 of <iA|bC> integrals:      0.134 (MW) /      1.068 (MB)
	Size of irrep 3 of <iA|bC> integrals:      0.199 (MW) /      1.591 (MB)
	Total:                                     0.671 (MW) /      5.371 (MB)

	Size of irrep 0 of tIjAb amplitudes:       0.013 (MW) /      0.102 (MB)
	Size of irrep 1 of tIjAb amplitudes:       0.003 (MW) /      0.026 (MB)
	Size of irrep 2 of tIjAb amplitudes:       0.007 (MW) /      0.055 (MB)
	Size of irrep 3 of tIjAb amplitudes:       0.008 (MW) /      0.066 (MB)
	Total:                                     0.031 (MW) /      0.250 (MB)

	Nuclear Rep. energy          =      8.80062454393214
	SCF energy                   =    -76.05372649459409
	One-electron energy          =    -41.04044389734348
	Two-electron (AA) energy     =      3.38356769335118
	Two-electron (BB) energy     =      3.38356769335118
	Two-electron (AB) energy     =     10.63832112799799
	Two-electron energy          =     17.40545651470035
	Reference energy             =    -76.05372649459426

*** tstop() called on c2-22.compute.lan at Mon Mar  8 09:40:11 2021
Module time:
	user time   =     158.73 seconds =       2.65 minutes
	system time =      10.30 seconds =       0.17 minutes
	total time  =         19 seconds =       0.32 minutes
Total time:
	user time   =     178.25 seconds =       2.97 minutes
	system time =      11.46 seconds =       0.19 minutes
	total time  =         22 seconds =       0.37 minutes
            **************************
            *                        *
            *        CCENERGY        *
            *                        *
            **************************

    Nuclear Rep. energy (wfn)     =    8.800624543932141
    SCF energy          (wfn)     =  -76.053726494594088
    Reference energy    (file100) =  -76.053726494594258

    Input parameters:
    -----------------
    Wave function   =     CCSD_T
    Reference wfn   =     UHF
    Brueckner       =     No
    Memory (Mbytes) =     4000.0
    Maxiter         =     50
    R_Convergence   =     1.0e-10
    E_Convergence   =     1.0e-10
    Restart         =     Yes
    DIIS            =     Yes
    AO Basis        =     NONE
    ABCD            =     NEW
    Cache Level     =     2
    Cache Type      =     LRU
    Print Level     =     1
    Num. of threads =     12
    # Amps to Print =     10
    Print MP2 Amps? =     No
    Analyze T2 Amps =     No
    Print Pair Ener =     No
    Local CC        =     No
    SCS-MP2         =     False
    SCSN-MP2        =     False
    SCS-CCSD        =     False

MP2 correlation energy -0.2723883073225143
                Solving CC Amplitude Equations
                ------------------------------
  Iter             Energy              RMS        T1Diag      D1Diag    New D1Diag    D2Diag
  ----     ---------------------    ---------   ----------  ----------  ----------   --------
     0        -0.272388307322514    0.000e+00    0.000000    0.000000    0.000000    0.000000
     1        -0.269794379148193    5.102e-02    0.012921    0.000000    0.000000    0.000000
     2        -0.275365369207070    1.449e-02    0.012653    0.000000    0.000000    0.000000
     3        -0.276744411636979    6.861e-03    0.014723    0.000000    0.000000    0.000000
     4        -0.276632576782972    1.402e-03    0.015077    0.000000    0.000000    0.000000
     5        -0.276616729802951    5.180e-04    0.015225    0.000000    0.000000    0.000000
     6        -0.276617607125256    1.304e-04    0.015258    0.000000    0.000000    0.000000
     7        -0.276616163124818    4.539e-05    0.015265    0.000000    0.000000    0.000000
     8        -0.276616257044260    1.284e-05    0.015267    0.000000    0.000000    0.000000
     9        -0.276616299063571    4.028e-06    0.015268    0.000000    0.000000    0.000000
    10        -0.276616152524688    1.623e-06    0.015268    0.000000    0.000000    0.000000
    11        -0.276616178181222    5.669e-07    0.015267    0.000000    0.000000    0.000000
    12        -0.276616170457178    2.103e-07    0.015268    0.000000    0.000000    0.000000
    13        -0.276616172782859    6.139e-08    0.015267    0.000000    0.000000    0.000000
    14        -0.276616174243249    1.591e-08    0.015267    0.000000    0.000000    0.000000
    15        -0.276616174330842    4.866e-09    0.015267    0.000000    0.000000    0.000000
    16        -0.276616174361497    1.430e-09    0.015267    0.000000    0.000000    0.000000
    17        -0.276616174381054    4.783e-10    0.015267    0.000000    0.000000    0.000000
    18        -0.276616174380364    1.197e-10    0.015267    0.000000    0.000000    0.000000
    19        -0.276616174380975    3.740e-11    0.015267    0.000000    0.000000    0.000000

    Iterations converged.


    Largest TIA Amplitudes:
              2  44        -0.0165919072
              2  45        -0.0140001468
              1   1         0.0086330571
              1   4        -0.0076367642
              3  73         0.0057822393
              2  54         0.0043017780
              3  69         0.0042192551
              1  15        -0.0037471003
              2  46         0.0037361905
              3  80         0.0036675535

    Largest Tia Amplitudes:
              2  44        -0.0165919072
              2  45        -0.0140001468
              1   1         0.0086330571
              1   4        -0.0076367642
              3  73         0.0057822393
              2  54         0.0043017780
              3  69         0.0042192551
              1  15        -0.0037471003
              2  46         0.0037361905
              3  80         0.0036675535

    Largest TIJAB Amplitudes:
      2   1  46   7        -0.0095729311
      3   1  66   6        -0.0091307624
      3   2  65  49        -0.0084071022
      3   2  33   6        -0.0082018044
      2   1  49   9         0.0080178890
      3   1  65   9         0.0078752253
      3   2  65  44        -0.0078706489
      3   2  65  45        -0.0074536886
      3   2  65  48        -0.0074091930
      3   1  66  13         0.0070772421

    Largest Tijab Amplitudes:
      2   1  46   7        -0.0095729311
      3   1  66   6        -0.0091307624
      3   2  65  49        -0.0084071022
      3   2  33   6        -0.0082018044
      2   1  49   9         0.0080178890
      3   1  65   9         0.0078752253
      3   2  65  44        -0.0078706489
      3   2  65  45        -0.0074536886
      3   2  65  48        -0.0074091930
      3   1  66  13         0.0070772421

    Largest TIjAb Amplitudes:
      3   3  65  65        -0.0254292311
      1   1   9   9        -0.0183265941
      2   2  49  49        -0.0171104990
      3   3  65  69        -0.0160957563
      3   3  69  65        -0.0160957563
      3   3  62  65        -0.0145970961
      3   3  65  62        -0.0145970961
      3   3  66  66        -0.0144518287
      2   2  48  48        -0.0142863727
      3   3  63  65        -0.0136627098

    SCF energy       (wfn)                    =  -76.053726494594088
    Reference energy (file100)                =  -76.053726494594258

    Opposite-spin MP2 correlation energy      =   -0.206306913671470
    Same-spin MP2 correlation energy          =   -0.066081393651044
    MP2 correlation energy                    =   -0.272388307322514
      * MP2 total energy                      =  -76.326114801916773

    Opposite-spin CCSD correlation energy     =   -0.218478209813803
    Same-spin CCSD correlation energy         =   -0.058137964567171
    CCSD correlation energy                   =   -0.276616174380975
      * CCSD total energy                     =  -76.330342668975234

            **************************
            *                        *
            *        CCTRIPLES       *
            *                        *
            **************************


    Wave function   =    CCSD_T
    Reference wfn   =      UHF

    Nuclear Rep. energy (wfn)                =    8.800624543932141
    SCF energy          (wfn)                =  -76.053726494594088
    Reference energy    (file100)            =  -76.053726494594258
    CCSD energy         (file100)            =   -0.276616174380975
    Total CCSD energy   (file100)            =  -76.330342668975234

    Number of ijk index combinations:
    Spin Case AAA:                                   4
    Spin Case BBB:                                   4
    Spin Case AAB:                                  24
    Spin Case ABB:                                  24
    AAA (T) energy                             =   -0.000199365984821
    BBB (T) energy                             =   -0.000199365984821
    AAB (T) energy                             =   -0.004361480675702
    ABB (T) energy                             =   -0.004361480675702
    (T) energy                                   =   -0.009121693321046
      * CCSD(T) total energy                     =  -76.339464362296283

Stephenergy -76.33946436229628
    Psi4 stopped on: Monday, 08 March 2021 09:40AM
    Psi4 wall time for execution: 0:00:31.45

*** Psi4 exiting successfully. Buy a developer a beer!
