
    -----------------------------------------------------------------------
          Psi4: An Open-Source Ab Initio Electronic Structure Package
                               Psi4 1.3.2 release

                         Git: Rev {HEAD} ecbda83 


    R. M. Parrish, L. A. Burns, D. G. A. Smith, A. C. Simmonett,
    A. E. DePrince III, E. G. Hohenstein, U. Bozkaya, A. Yu. Sokolov,
    R. Di Remigio, R. M. Richard, J. F. Gonthier, A. M. James,
    H. R. McAlexander, A. Kumar, M. Saitow, X. Wang, B. P. Pritchard,
    P. Verma, H. F. Schaefer III, K. Patkowski, R. A. King, E. F. Valeev,
    F. A. Evangelista, J. M. Turney, T. D. Crawford, and C. D. Sherrill,
    J. Chem. Theory Comput. 13(7) pp 3185--3197 (2017).
    (doi: 10.1021/acs.jctc.7b00174)


                         Additional Contributions by
    P. Kraus, H. Kruse, M. H. Lechner, M. C. Schieber, R. A. Shaw,
    A. Alenaizan, R. Galvelis, Z. L. Glick, S. Lehtola, and J. P. Misiewicz

    -----------------------------------------------------------------------


    Psi4 started on: Tuesday, 09 March 2021 03:41PM

    Process ID: 97346
    Host:       c5-7.compute.lan
    PSIDATADIR: /apps/gb/PSI4/1.3.2/share/psi4
    Memory:     500.0 MiB
    Threads:    12
    
  ==> Input File <==

--------------------------------------------------------------------------
memory 4 GB

molecule  {
0 3
O   -1.504254809230   -0.000977031919    0.000000000000 
H   -0.554462853345    0.155343667543    0.000000000000          
H   -1.895057821100    0.875124339022    0.000000000000
O    1.658596880531   -0.063951820571    0.000000000000
}
set {
basis aug-cc-pvtz
reference uhf
e_convergence 10
scf_type pk
freeze_core true
}

set ccenergy {
e_convergence 10
r_convergence 10
}

e = energy('ccsd(t)')

print_out('Stephenergy {}'.format(e))

--------------------------------------------------------------------------

  Memory set to   3.725 GiB by Python driver.

*** tstart() called on c5-7.compute.lan
*** at Tue Mar  9 15:41:02 2021

   => Loading Basis Set <=

    Name: AUG-CC-PVTZ
    Role: ORBITAL
    Keyword: BASIS
    atoms 1, 4 entry O          line   327 file /apps/gb/PSI4/1.3.2/share/psi4/basis/aug-cc-pvtz.gbs 
    atoms 2-3  entry H          line    36 file /apps/gb/PSI4/1.3.2/share/psi4/basis/aug-cc-pvtz.gbs 


         ---------------------------------------------------------
                                   SCF
               by Justin Turney, Rob Parrish, Andy Simmonett
                          and Daniel G. A. Smith
                              UHF Reference
                       12 Threads,   3814 MiB Core
         ---------------------------------------------------------

  ==> Geometry <==

    Molecular point group: cs
    Full point group: Cs

    Geometry (in Angstrom), charge = 0, multiplicity = 3:

       Center              X                  Y                   Z               Mass       
    ------------   -----------------  -----------------  -----------------  -----------------
         O           -1.504254809230    -0.000977031919     0.000000000000    15.994914619570
         H           -0.554462853345     0.155343667543     0.000000000000     1.007825032230
         H           -1.895057821100     0.875124339022     0.000000000000     1.007825032230
         O            1.658596880531    -0.063951820571     0.000000000000    15.994914619570

  Running in cs symmetry.

  Rotational constants: A =     23.39966  B =      0.20006  C =      0.19836 [cm^-1]
  Rotational constants: A = 701504.17911  B =   5997.53398  C =   5946.69253 [MHz]
  Nuclear repulsion =   22.919862609551537

  Charge       = 0
  Multiplicity = 3
  Electrons    = 18
  Nalpha       = 10
  Nbeta        = 8

  ==> Algorithm <==

  SCF Algorithm Type is PK.
  DIIS enabled.
  MOM disabled.
  Fractional occupation disabled.
  Guess Type is SAD.
  Energy threshold   = 1.00e-10
  Density threshold  = 1.00e-08
  Integral threshold = 0.00e+00

  ==> Primary Basis <==

  Basis Set: AUG-CC-PVTZ
    Blend: AUG-CC-PVTZ
    Number of shells: 46
    Number of basis function: 138
    Number of Cartesian functions: 160
    Spherical Harmonics?: true
    Max angular momentum: 3

  ==> Pre-Iterations <==

   -------------------------------------------------------
    Irrep   Nso     Nmo     Nalpha   Nbeta   Ndocc  Nsocc
   -------------------------------------------------------
     A'        92      92       0       0       0       0
     A"        46      46       0       0       0       0
   -------------------------------------------------------
    Total     138     138      10       8       8       2
   -------------------------------------------------------

  ==> Integral Setup <==

  Using in-core PK algorithm.
   Calculation information:
      Number of atoms:                   4
      Number of AO shells:              46
      Number of primitives:             82
      Number of atomic orbitals:       160
      Number of basis functions:       138

      Integral cutoff                 1.00e-12
      Number of threads:                12

  Performing in-core PK
  Using 91996872 doubles for integral storage.
  We computed 901898 shell quartets total.
  Whereas there are 584821 unique shell quartets.
    54.22 percent of shell quartets recomputed by reordering.

  ==> DiskJK: Disk-Based J/K Matrices <==

    J tasked:                  Yes
    K tasked:                  Yes
    wK tasked:                  No
    Memory [MiB]:             2861
    Schwarz Cutoff:          1E-12

    OpenMP threads:             12

  Minimum eigenvalue in the overlap matrix is 2.9454237900E-04.
  Using Symmetric Orthogonalization.

  SCF Guess: Superposition of Atomic Densities via on-the-fly atomic UHF.

  ==> Iterations <==

                        Total Energy        Delta E     RMS |[F,P]|

   @UHF iter SAD:  -149.40208481069888   -1.49402e+02   0.00000e+00 
   @UHF iter   1:  -150.76394484779860   -1.36186e+00   5.05008e-03 DIIS
   @UHF iter   2:  -150.83820867216696   -7.42638e-02   3.27463e-03 DIIS
   @UHF iter   3:  -150.87324461302651   -3.50359e-02   3.92819e-04 DIIS
   @UHF iter   4:  -150.87435754116814   -1.11293e-03   1.30560e-04 DIIS
   @UHF iter   5:  -150.87448425103477   -1.26710e-04   5.11894e-05 DIIS
   @UHF iter   6:  -150.87451853937597   -3.42883e-05   1.54302e-05 DIIS
   @UHF iter   7:  -150.87452238176110   -3.84239e-06   5.60032e-06 DIIS
   @UHF iter   8:  -150.87452325344665   -8.71686e-07   4.46448e-06 DIIS
   @UHF iter   9:  -150.87452399887954   -7.45433e-07   4.34949e-06 DIIS
   @UHF iter  10:  -150.87452514899908   -1.15012e-06   4.29108e-06 DIIS
   @UHF iter  11:  -150.87453182426788   -6.67527e-06   4.00304e-06 DIIS
   @UHF iter  12:  -150.87454899541197   -1.71711e-05   3.75899e-06 DIIS
   @UHF iter  13:  -150.87455067659997   -1.68119e-06   3.29284e-06 DIIS
   @UHF iter  14:  -150.87456793865283   -1.72621e-05   8.32403e-06 DIIS
   @UHF iter  15:  -150.87456787550275    6.31501e-08   6.19973e-06 DIIS
   @UHF iter  16:  -150.87456954010077   -1.66460e-06   6.19720e-06 DIIS
   @UHF iter  17:  -150.87456975241133   -2.12311e-07   2.65368e-06 DIIS
   @UHF iter  18:  -150.87456982906826   -7.66569e-08   1.14599e-06 DIIS
   @UHF iter  19:  -150.87456983997902   -1.09108e-08   1.20787e-07 DIIS
   @UHF iter  20:  -150.87456983991103    6.79847e-11   1.63839e-07 DIIS
   @UHF iter  21:  -150.87456984006712   -1.56092e-10   4.45469e-09 DIIS
   @UHF iter  22:  -150.87456984006826   -1.13687e-12   7.75626e-10 DIIS
  Energy and wave function converged.


  ==> Post-Iterations <==

   @Spin Contamination Metric:   9.373113937E-03
   @S^2 Expected:                2.000000000E+00
   @S^2 Observed:                2.009373114E+00
   @S   Expected:                1.000000000E+00
   @S   Observed:                1.000000000E+00

    Orbital Energies [Eh]
    ---------------------

    Alpha Occupied:                                                       

       1Ap   -20.733057     2Ap   -20.558476     3Ap    -1.442387  
       4Ap    -1.343402     5Ap    -0.733172     1App   -0.732782  
       6Ap    -0.711163     7Ap    -0.634500     8Ap    -0.574827  
       2App   -0.501945  

    Alpha Virtual:                                                        

       9Ap     0.034235    10Ap     0.053471    11Ap     0.128166  
       3App    0.132900    12Ap     0.148167    13Ap     0.160825  
      14Ap     0.183926     4App    0.186771    15Ap     0.214093  
      16Ap     0.242033    17Ap     0.264448     5App    0.286520  
      18Ap     0.304103     6App    0.320738    19Ap     0.364373  
      20Ap     0.406385    21Ap     0.460904    22Ap     0.568636  
       7App    0.602614    23Ap     0.608636    24Ap     0.627392  
      25Ap     0.681857     8App    0.709494    26Ap     0.714933  
       9App    0.736607    10App    0.748594    27Ap     0.750759  
      28Ap     0.811581    11App    0.826098    29Ap     0.837111  
      12App    0.890783    30Ap     0.892087    31Ap     0.922773  
      32Ap     0.945281    13App    0.947783    33Ap     0.951326  
      14App    0.971870    34Ap     0.979227    35Ap     1.044090  
      36Ap     1.135840    15App    1.153895    37Ap     1.170515  
      38Ap     1.185297    39Ap     1.261064    16App    1.295175  
      40Ap     1.315989    17App    1.527956    41Ap     1.588019  
      18App    1.599112    42Ap     1.715628    43Ap     1.809005  
      44Ap     1.842705    45Ap     1.977646    19App    1.977731  
      46Ap     1.980062    20App    2.013214    47Ap     2.018171  
      21App    2.048433    48Ap     2.061854    22App    2.122624  
      49Ap     2.153090    50Ap     2.175926    23App    2.212664  
      24App    2.303223    51Ap     2.309699    52Ap     2.339193  
      53Ap     2.414572    25App    2.441549    54Ap     2.459662  
      55Ap     2.490809    26App    2.526176    56Ap     2.629326  
      57Ap     2.710221    27App    2.727550    58Ap     2.735685  
      59Ap     2.861985    60Ap     2.933451    28App    2.944239  
      61Ap     3.698413    62Ap     3.892639    29App    4.036191  
      30App    4.063246    63Ap     4.074398    31App    4.178951  
      64Ap     4.211257    65Ap     4.266015    32App    4.305046  
      33App    4.391836    66Ap     4.409451    34App    4.430660  
      67Ap     4.445600    68Ap     4.602253    69Ap     4.780275  
      70Ap     4.960837    35App    5.159249    71Ap     5.171824  
      72Ap     5.301946    73Ap     5.394867    36App    5.528324  
      74Ap     5.695221    75Ap     6.188840    37App    6.312370  
      76Ap     6.312401    38App    6.375500    77Ap     6.378221  
      39App    6.518255    78Ap     6.519927    79Ap     6.559592  
      80Ap     6.637140    40App    6.735949    81Ap     6.814477  
      41App    6.820048    82Ap     6.921350    42App    6.936862  
      83Ap     6.961441    84Ap     7.051042    43App    7.149984  
      44App    7.273139    45App    7.327872    85Ap     7.330723  
      86Ap     7.363657    46App    7.435764    87Ap     7.651519  
      88Ap     7.948805    89Ap     7.963851    90Ap     8.814873  
      91Ap     9.517258    92Ap    16.340059  

    Beta Occupied:                                                        

       1Ap   -20.654272     2Ap   -20.558605     3Ap    -1.343974  
       4Ap    -1.099921     5Ap    -0.710415     6Ap    -0.579823  
       7Ap    -0.541206     1App   -0.501989  

    Beta Virtual:                                                         

       8Ap     0.034389     2App    0.049373     9Ap     0.049613  
      10Ap     0.055180    11Ap     0.143860    12Ap     0.152959  
       3App    0.161154    13Ap     0.178097    14Ap     0.207822  
      15Ap     0.225491     4App    0.227197    16Ap     0.250758  
      17Ap     0.265682     5App    0.286731    18Ap     0.306243  
       6App    0.324473    19Ap     0.368277    20Ap     0.417276  
      21Ap     0.462148    22Ap     0.572194    23Ap     0.628100  
       7App    0.635010    24Ap     0.640444    25Ap     0.686656  
      26Ap     0.715599     8App    0.721567     9App    0.739754  
      10App    0.750294    27Ap     0.767251    28Ap     0.817960  
      29Ap     0.868168    11App    0.868993    30Ap     0.920071  
      31Ap     0.941859    12App    0.941886    13App    0.949939  
      32Ap     0.952674    33Ap     0.970540    34Ap     1.017908  
      14App    1.020216    35Ap     1.046199    15App    1.157037  
      36Ap     1.163939    37Ap     1.173586    38Ap     1.216324  
      39Ap     1.264159    16App    1.305769    40Ap     1.324774  
      17App    1.528686    41Ap     1.590258    18App    1.600535  
      42Ap     1.741770    43Ap     1.814457    44Ap     1.853471  
      45Ap     1.988348    46Ap     2.015697    19App    2.015708  
      20App    2.053750    47Ap     2.066434    21App    2.170787  
      48Ap     2.176333    22App    2.179622    49Ap     2.193954  
      50Ap     2.244663    23App    2.249895    24App    2.306623  
      51Ap     2.315192    52Ap     2.361783    53Ap     2.419070  
      25App    2.444262    54Ap     2.460432    55Ap     2.497140  
      26App    2.534608    56Ap     2.636503    57Ap     2.726698  
      27App    2.728886    58Ap     2.739700    59Ap     2.863802  
      60Ap     2.937850    28App    2.944868    61Ap     3.699107  
      62Ap     3.894973    29App    4.039233    30App    4.147681  
      63Ap     4.196162    64Ap     4.244222    31App    4.262754  
      65Ap     4.277029    32App    4.305120    33App    4.391906  
      66Ap     4.412981    34App    4.431327    67Ap     4.489991  
      68Ap     4.604801    69Ap     4.781959    70Ap     4.962777  
      35App    5.159237    71Ap     5.172126    72Ap     5.302188  
      73Ap     5.396089    36App    5.528384    74Ap     5.695573  
      75Ap     6.190077    76Ap     6.421224    37App    6.421229  
      38App    6.450703    77Ap     6.453439    78Ap     6.535120  
      39App    6.572151    79Ap     6.600284    80Ap     6.682096  
      40App    6.741860    81Ap     6.923342    41App    7.005153  
      82Ap     7.006767    42App    7.046103    83Ap     7.068265  
      84Ap     7.130784    43App    7.152470    44App    7.273426  
      45App    7.328549    85Ap     7.330988    86Ap     7.364468  
      46App    7.436173    87Ap     7.652363    88Ap     7.949628  
      89Ap     7.964387    90Ap     8.816448    91Ap     9.592239  
      92Ap    16.340325  

    Final Occupation by Irrep:
             Ap   App 
    DOCC [     7,    1 ]
    SOCC [     1,    1 ]

  @UHF Final Energy:  -150.87456984006826

   => Energetics <=

    Nuclear Repulsion Energy =             22.9198626095515365
    One-Electron Energy =                -253.6329495507359582
    Two-Electron Energy =                  79.8385171011161674
    Total Energy =                       -150.8745698400682613

  UHF NO Occupations:
  HONO-2 :    7 Ap 1.9970282
  HONO-1 :    2App 1.0000000
  HONO-0 :    8 Ap 1.0000000
  LUNO+0 :    9 Ap 0.0029718
  LUNO+1 :   10 Ap 0.0017158
  LUNO+2 :   11 Ap 0.0000024
  LUNO+3 :   12 Ap 0.0000017


Computation Completed


Properties will be evaluated at   0.000000,   0.000000,   0.000000 [a0]

Properties computed using the SCF density matrix

  Nuclear Dipole Moment: [e a0]
     X:    -2.2956      Y:     0.9657      Z:     0.0000

  Electronic Dipole Moment: [e a0]
     X:     2.7578      Y:    -0.2921      Z:     0.0000

  Dipole Moment: [e a0]
     X:     0.4622      Y:     0.6736      Z:     0.0000     Total:     0.8169

  Dipole Moment: [D]
     X:     1.1749      Y:     1.7121      Z:     0.0000     Total:     2.0764


*** tstop() called on c5-7.compute.lan at Tue Mar  9 15:41:08 2021
Module time:
	user time   =      54.85 seconds =       0.91 minutes
	system time =       1.01 seconds =       0.02 minutes
	total time  =          6 seconds =       0.10 minutes
Total time:
	user time   =      54.85 seconds =       0.91 minutes
	system time =       1.01 seconds =       0.02 minutes
	total time  =          6 seconds =       0.10 minutes
 MINTS: Wrapper to libmints.
   by Justin Turney

   Calculation information:
      Number of threads:                12
      Number of atoms:                   4
      Number of AO shells:              46
      Number of SO shells:              46
      Number of primitives:             82
      Number of atomic orbitals:       160
      Number of basis functions:       138

      Number of irreps:                  2
      Integral cutoff                 0.00e+00
      Number of functions per irrep: [  92   46 ]

 OEINTS: Overlap, kinetic, potential, dipole, and quadrupole integrals
         stored in file 35.

      Computing two-electron integrals...done
      Computed 22944939 non-zero two-electron integrals.
        Stored in file 33.


*** tstart() called on c5-7.compute.lan
*** at Tue Mar  9 15:41:12 2021


	Wfn Parameters:
	--------------------
	Wavefunction         = CCSD_T
	Number of irreps     = 2
	Number of MOs        = 138
	Number of active MOs = 136
	AO-Basis             = NONE
	Semicanonical        = false
	Reference            = UHF
	Print Level          = 1

	IRREP	# MOs	# FZDC	# DOCC	# SOCC	# VIRT	# FZVR
	-----	-----	------	------	------	------	------
	 Ap	   92	    2	    5	    1	    84	    0
	 App	   46	    0	    1	    1	    44	    0
	Transforming integrals...
	IWL integrals will be deleted.
	(OO|OO)...
	Presorting SO-basis two-electron integrals.
	Sorting File: SO Ints (nn|nn) nbuckets = 1
	Transforming the one-electron integrals and constructing Fock matrices
	Starting AA/AB first half-transformation.
	Sorting AA/AB half-transformed integrals.
	Starting BB first half-transformation.
	Sorting BB half-transformed integrals.
	First half integral transformation complete.
	Starting AA second half-transformation.
	Starting AB second half-transformation.
	Starting BB second half-transformation.
	Two-electron integral transformation complete.
	(OO|OV)...
	Starting AA second half-transformation.
	Starting AB second half-transformation.
	Starting BB second half-transformation.
	Two-electron integral transformation complete.
	(OO|VV)...
	Starting AA second half-transformation.
	Starting AB second half-transformation.
	Starting BB second half-transformation.
	Two-electron integral transformation complete.
	(OV|OO)...
	Starting AA/AB first half-transformation.
	Sorting AA/AB half-transformed integrals.
	Starting BB first half-transformation.
	Sorting BB half-transformed integrals.
	First half integral transformation complete.
	Starting AA second half-transformation.
	Starting AB second half-transformation.
	Starting BB second half-transformation.
	Two-electron integral transformation complete.
	(OV|OV)...
	Starting AA second half-transformation.
	Starting AB second half-transformation.
	Starting BB second half-transformation.
	Two-electron integral transformation complete.
	(OV|VV)...
	Starting AA second half-transformation.
	Starting AB second half-transformation.
	Starting BB second half-transformation.
	Two-electron integral transformation complete.
	(VV|OO)...
	Starting AA/AB first half-transformation.
	Sorting AA/AB half-transformed integrals.
	Starting BB first half-transformation.
	Sorting BB half-transformed integrals.
	First half integral transformation complete.
	Starting AA second half-transformation.
	Starting AB second half-transformation.
	Starting BB second half-transformation.
	Two-electron integral transformation complete.
	(VV|OV)...
	Starting AA second half-transformation.
	Starting AB second half-transformation.
	Starting BB second half-transformation.
	Two-electron integral transformation complete.
	(VV|VV)...
	Starting AA second half-transformation.
	Starting AB second half-transformation.
	Starting BB second half-transformation.
	Two-electron integral transformation complete.
	Frozen core energy     =   -125.86129773683732

	Size of irrep 0 of <AB|CD> integrals:     19.643 (MW) /    157.141 (MB)
	Size of irrep 1 of <AB|CD> integrals:     13.660 (MW) /    109.283 (MB)
	Total:                                    33.303 (MW) /    266.424 (MB)

	Size of irrep 0 of <ab|cd> integrals:     20.794 (MW) /    166.349 (MB)
	Size of irrep 1 of <ab|cd> integrals:     14.631 (MW) /    117.045 (MB)
	Total:                                    35.424 (MW) /    283.394 (MB)

	Size of irrep 0 of <Ab|Cd> integrals:     83.174 (MW) /    665.395 (MB)
	Size of irrep 1 of <Ab|Cd> integrals:     56.550 (MW) /    452.403 (MB)
	Total:                                   139.725 (MW) /   1117.798 (MB)

	Size of irrep 0 of <IA|BC> integrals:      5.323 (MW) /     42.586 (MB)
	Size of irrep 1 of <IA|BC> integrals:      3.193 (MW) /     25.547 (MB)
	Total:                                     8.517 (MW) /     68.133 (MB)

	Size of irrep 0 of <ia|bc> integrals:      4.348 (MW) /     34.780 (MB)
	Size of irrep 1 of <ia|bc> integrals:      2.372 (MW) /     18.972 (MB)
	Total:                                     6.719 (MW) /     53.752 (MB)

	Size of irrep 0 of <Ia|Bc> integrals:      5.472 (MW) /     43.776 (MB)
	Size of irrep 1 of <Ia|Bc> integrals:      3.309 (MW) /     26.470 (MB)
	Total:                                     8.781 (MW) /     70.246 (MB)

	Size of irrep 0 of <iA|bC> integrals:      4.232 (MW) /     33.853 (MB)
	Size of irrep 1 of <iA|bC> integrals:      2.286 (MW) /     18.289 (MB)
	Total:                                     6.518 (MW) /     52.142 (MB)

	Size of irrep 0 of tIjAb amplitudes:       0.292 (MW) /      2.335 (MB)
	Size of irrep 1 of tIjAb amplitudes:       0.120 (MW) /      0.963 (MB)
	Total:                                     0.412 (MW) /      3.297 (MB)

	Nuclear Rep. energy          =     22.91986260955154
	SCF energy                   =   -150.87456984006826
	One-electron energy          =    -84.41476298626949
	Two-electron (AA) energy     =     10.13765479797860
	Two-electron (BB) energy     =      5.39332399836945
	Two-electron (AB) energy     =     20.95064947713816
	Two-electron energy          =     36.48162827348621
	Reference energy             =   -150.87456984006906

*** tstop() called on c5-7.compute.lan at Tue Mar  9 15:42:01 2021
Module time:
	user time   =     250.44 seconds =       4.17 minutes
	system time =      18.66 seconds =       0.31 minutes
	total time  =         49 seconds =       0.82 minutes
Total time:
	user time   =     311.13 seconds =       5.19 minutes
	system time =      20.31 seconds =       0.34 minutes
	total time  =         59 seconds =       0.98 minutes
            **************************
            *                        *
            *        CCENERGY        *
            *                        *
            **************************

    Nuclear Rep. energy (wfn)     =   22.919862609551537
    SCF energy          (wfn)     = -150.874569840068261
    Reference energy    (file100) = -150.874569840069057

    Input parameters:
    -----------------
    Wave function   =     CCSD_T
    Reference wfn   =     UHF
    Brueckner       =     No
    Memory (Mbytes) =     4000.0
    Maxiter         =     50
    R_Convergence   =     1.0e-10
    E_Convergence   =     1.0e-10
    Restart         =     Yes
    DIIS            =     Yes
    AO Basis        =     NONE
    ABCD            =     NEW
    Cache Level     =     2
    Cache Type      =     LRU
    Print Level     =     1
    Num. of threads =     12
    # Amps to Print =     10
    Print MP2 Amps? =     No
    Analyze T2 Amps =     No
    Print Pair Ener =     No
    Local CC        =     No
    SCS-MP2         =     False
    SCSN-MP2        =     False
    SCS-CCSD        =     False

MP2 correlation energy -0.4165132036229061
                Solving CC Amplitude Equations
                ------------------------------
  Iter             Energy              RMS        T1Diag      D1Diag    New D1Diag    D2Diag
  ----     ---------------------    ---------   ----------  ----------  ----------   --------
     0        -0.416513203622906    0.000e+00    0.000000    0.000000    0.000000    0.000000
     1        -0.427260267360677    5.681e-02    0.010539    0.000000    0.000000    0.000000
     2        -0.435336996719419    1.687e-02    0.011020    0.000000    0.000000    0.000000
     3        -0.437454056612884    8.561e-03    0.012887    0.000000    0.000000    0.000000
     4        -0.437328266518590    2.533e-03    0.013254    0.000000    0.000000    0.000000
     5        -0.437313849299592    1.319e-03    0.013410    0.000000    0.000000    0.000000
     6        -0.437341104514133    5.143e-04    0.013432    0.000000    0.000000    0.000000
     7        -0.437345732633159    2.641e-04    0.013426    0.000000    0.000000    0.000000
     8        -0.437346327171091    9.935e-05    0.013422    0.000000    0.000000    0.000000
     9        -0.437347695088271    7.414e-05    0.013423    0.000000    0.000000    0.000000
    10        -0.437346141241720    6.407e-05    0.013424    0.000000    0.000000    0.000000
    11        -0.437346286602280    6.123e-05    0.013425    0.000000    0.000000    0.000000
    12        -0.437345999155123    5.955e-05    0.013427    0.000000    0.000000    0.000000
    13        -0.437345988999751    5.841e-05    0.013431    0.000000    0.000000    0.000000
    14        -0.437347163975998    5.652e-05    0.013449    0.000000    0.000000    0.000000
    15        -0.437347543005490    4.998e-05    0.013521    0.000000    0.000000    0.000000
    16        -0.437347315305892    3.339e-05    0.013661    0.000000    0.000000    0.000000
    17        -0.437346971174962    1.612e-05    0.013730    0.000000    0.000000    0.000000
    18        -0.437346841894890    7.557e-06    0.013747    0.000000    0.000000    0.000000
    19        -0.437347099982080    3.342e-06    0.013751    0.000000    0.000000    0.000000
    20        -0.437347211565415    1.498e-06    0.013752    0.000000    0.000000    0.000000
    21        -0.437347219468284    5.902e-07    0.013752    0.000000    0.000000    0.000000
    22        -0.437347220694282    2.800e-07    0.013752    0.000000    0.000000    0.000000
    23        -0.437347219589579    1.453e-07    0.013752    0.000000    0.000000    0.000000
    24        -0.437347218909190    6.016e-08    0.013752    0.000000    0.000000    0.000000
    25        -0.437347219866782    3.287e-08    0.013752    0.000000    0.000000    0.000000
    26        -0.437347220325310    2.551e-08    0.013752    0.000000    0.000000    0.000000
    27        -0.437347220484533    2.389e-08    0.013752    0.000000    0.000000    0.000000
    28        -0.437347220432676    2.314e-08    0.013752    0.000000    0.000000    0.000000
    29        -0.437347220269073    2.247e-08    0.013753    0.000000    0.000000    0.000000
    30        -0.437347220002774    2.137e-08    0.013753    0.000000    0.000000    0.000000
    31        -0.437347220201387    1.804e-08    0.013753    0.000000    0.000000    0.000000
    32        -0.437347220544878    9.437e-09    0.013753    0.000000    0.000000    0.000000
    33        -0.437347220645839    4.131e-09    0.013753    0.000000    0.000000    0.000000
    34        -0.437347220696999    1.688e-09    0.013753    0.000000    0.000000    0.000000
    35        -0.437347220703490    6.653e-10    0.013753    0.000000    0.000000    0.000000
    36        -0.437347220703160    2.850e-10    0.013753    0.000000    0.000000    0.000000
    37        -0.437347220700949    1.213e-10    0.013753    0.000000    0.000000    0.000000
    38        -0.437347220702396    5.756e-11    0.013753    0.000000    0.000000    0.000000

    Iterations converged.


    Largest TIA Amplitudes:
              7  87        -0.0121804929
              7  84        -0.0116032995
              7  85        -0.0094307458
              4   3         0.0090260588
              6  84        -0.0080610209
              5   9        -0.0076727258
              4  10         0.0070481274
              5   2        -0.0069956872
              2   2         0.0068895513
              7  86        -0.0062327879

    Largest Tia Amplitudes:
              5  86        -0.0122799406
              5  89        -0.0117620831
              5  85        -0.0098427096
              4   1        -0.0097548565
              3   3         0.0089711677
              3  10        -0.0070763591
              5  88        -0.0064302451
              5  87        -0.0060088116
              3  11         0.0058321385
              4   7        -0.0057156554

    Largest TIJAB Amplitudes:
      6   2  92  20        -0.0108637353
      6   2 101  38        -0.0097953777
      6   4  92  29        -0.0096553081
      6   2  92  21        -0.0088510001
      4   2  29  20        -0.0083718553
      4   2  41  40         0.0082844249
      6   2 102  38         0.0076932096
      4   2  29  21        -0.0074126215
      6   2 111  54        -0.0073011707
      6   2  88  38         0.0073007892

    Largest Tijab Amplitudes:
      4   1  42   1         0.0070266703
      4   1  91  85        -0.0067941781
      4   1  19   1         0.0064012476
      4   1 106  85        -0.0063097533
      5   2  94  13         0.0062514697
      5   2  89  13         0.0058818553
      5   2 100  17         0.0058153449
      5   2  92  17        -0.0057777368
      5   2  86  13         0.0057172287
      3   2  18  15        -0.0054010929

    Largest TIjAb Amplitudes:
      3   2  12  13         0.0181831950
      2   1  38   1        -0.0171043473
      6   1  38  85        -0.0166000840
      4   4  29  30         0.0163770768
      4   1 103  85        -0.0151439300
      2   1 101  85         0.0146327829
      2   1  88  85        -0.0143777017
      6   1 101   1        -0.0143541904
      4   1  41   1        -0.0143451185
      6   1  88   1         0.0141226494

    SCF energy       (wfn)                    = -150.874569840068261
    Reference energy (file100)                = -150.874569840069057

    Opposite-spin MP2 correlation energy      =   -0.314559102216727
    Same-spin MP2 correlation energy          =   -0.101954101406179
    MP2 correlation energy                    =   -0.416513203622906
      * MP2 total energy                      = -151.291083043691970

    Opposite-spin CCSD correlation energy     =   -0.342098620842967
    Same-spin CCSD correlation energy         =   -0.095248599859429
    CCSD correlation energy                   =   -0.437347220702396
      * CCSD total energy                     = -151.311917060771464

            **************************
            *                        *
            *        CCTRIPLES       *
            *                        *
            **************************


    Wave function   =    CCSD_T
    Reference wfn   =      UHF

    Nuclear Rep. energy (wfn)                =   22.919862609551537
    SCF energy          (wfn)                = -150.874569840068261
    Reference energy    (file100)            = -150.874569840069057
    CCSD energy         (file100)            =   -0.437347220702396
    Total CCSD energy   (file100)            = -151.311917060771464

    Number of ijk index combinations:
    Spin Case AAA:                                  56
    Spin Case BBB:                                  20
    Spin Case AAB:                                 168
    Spin Case ABB:                                 120
    AAA (T) energy                             =   -0.000399299022781
    BBB (T) energy                             =   -0.000202436560879
    AAB (T) energy                             =   -0.006737358508737
    ABB (T) energy                             =   -0.005003776345760
    (T) energy                                   =   -0.012342870438157
      * CCSD(T) total energy                     = -151.324259931209610

Stephenergy -151.3242599312096
    Psi4 stopped on: Tuesday, 09 March 2021 03:45PM
    Psi4 wall time for execution: 0:04:03.08

*** Psi4 exiting successfully. Buy a developer a beer!
