
    -----------------------------------------------------------------------
          Psi4: An Open-Source Ab Initio Electronic Structure Package
                               Psi4 1.4a2.dev191 

                         Git: Rev {master} 0ab5346 


    R. M. Parrish, L. A. Burns, D. G. A. Smith, A. C. Simmonett,
    A. E. DePrince III, E. G. Hohenstein, U. Bozkaya, A. Yu. Sokolov,
    R. Di Remigio, R. M. Richard, J. F. Gonthier, A. M. James,
    H. R. McAlexander, A. Kumar, M. Saitow, X. Wang, B. P. Pritchard,
    P. Verma, H. F. Schaefer III, K. Patkowski, R. A. King, E. F. Valeev,
    F. A. Evangelista, J. M. Turney, T. D. Crawford, and C. D. Sherrill,
    J. Chem. Theory Comput. 13(7) pp 3185--3197 (2017).
    (doi: 10.1021/acs.jctc.7b00174)


                         Additional Contributions by
    P. Kraus, H. Kruse, M. H. Lechner, M. C. Schieber, R. A. Shaw,
    A. Alenaizan, R. Galvelis, Z. L. Glick, S. Lehtola, and J. P. Misiewicz

    -----------------------------------------------------------------------


    Psi4 started on: Tuesday, 23 February 2021 01:22PM

    Process ID: 234854
    Host:       c4-20.compute.lan
    PSIDATADIR: /apps/gb/PSI4/1.4.0/share/psi4
    Memory:     500.0 MiB
    Threads:    1
    
  ==> Input File <==

--------------------------------------------------------------------------
memory 10 GB

molecule {
0 2
O 
H 1 R1
R1 = 0.96
}

set {
basis aug-cc-pv5z
e_convergence 10
reference uhf
scf_type pk
g_convergence gau_verytight
}

optimize("scf")

--------------------------------------------------------------------------

  Memory set to   9.313 GiB by Python driver.
gradient() will perform analytic gradient computation.

*** tstart() called on c4-20.compute.lan
*** at Tue Feb 23 13:22:04 2021

   => Loading Basis Set <=

    Name: AUG-CC-PV5Z
    Role: ORBITAL
    Keyword: BASIS
    atoms 1 entry O          line   541 file /apps/gb/PSI4/1.4.0/share/psi4/basis/aug-cc-pv5z.gbs 
    atoms 2 entry H          line    42 file /apps/gb/PSI4/1.4.0/share/psi4/basis/aug-cc-pv5z.gbs 


         ---------------------------------------------------------
                                   SCF
               by Justin Turney, Rob Parrish, Andy Simmonett
                          and Daniel G. A. Smith
                              UHF Reference
                        1 Threads,   9536 MiB Core
         ---------------------------------------------------------

  ==> Geometry <==

    Molecular point group: c2v
    Full point group: C_inf_v

    Geometry (in Angstrom), charge = 0, multiplicity = 2:

       Center              X                  Y                   Z               Mass       
    ------------   -----------------  -----------------  -----------------  -----------------
         O            0.000000000000     0.000000000000    -0.056903302100    15.994914619570
         H            0.000000000000     0.000000000000     0.903096697900     1.007825032230

  Running in c2v symmetry.

  Rotational constants: A = ************  B =     19.29327  C =     19.29327 [cm^-1]
  Rotational constants: A = ************  B = 578397.71805  C = 578397.71805 [MHz]
  Nuclear repulsion =    4.409810088916667

  Charge       = 0
  Multiplicity = 2
  Electrons    = 9
  Nalpha       = 5
  Nbeta        = 4

  ==> Algorithm <==

  SCF Algorithm Type is PK.
  DIIS enabled.
  MOM disabled.
  Fractional occupation disabled.
  Guess Type is SAD.
  Energy threshold   = 1.00e-10
  Density threshold  = 1.00e-08
  Integral threshold = 0.00e+00

  ==> Primary Basis <==

  Basis Set: AUG-CC-PV5Z
    Blend: AUG-CC-PV5Z
    Number of shells: 47
    Number of basis function: 207
    Number of Cartesian functions: 287
    Spherical Harmonics?: true
    Max angular momentum: 5

  ==> Pre-Iterations <==

   -------------------------------------------------------
    Irrep   Nso     Nmo     Nalpha   Nbeta   Ndocc  Nsocc
   -------------------------------------------------------
     A1        77      77       0       0       0       0
     A2        30      30       0       0       0       0
     B1        50      50       0       0       0       0
     B2        50      50       0       0       0       0
   -------------------------------------------------------
    Total     207     207       5       4       4       1
   -------------------------------------------------------

  ==> Integral Setup <==

  Using in-core PK algorithm.
   Calculation information:
      Number of atoms:                   2
      Number of AO shells:              47
      Number of primitives:             71
      Number of atomic orbitals:       287
      Number of basis functions:       207

      Integral cutoff                 1.00e-12
      Number of threads:                 1

  Performing in-core PK
  Using 463476312 doubles for integral storage.
  We computed 636756 shell quartets total.
  Whereas there are 636756 unique shell quartets.

  ==> DiskJK: Disk-Based J/K Matrices <==

    J tasked:                  Yes
    K tasked:                  Yes
    wK tasked:                  No
    Memory [MiB]:             7152
    Schwarz Cutoff:          1E-12

    OpenMP threads:              1

  Minimum eigenvalue in the overlap matrix is 1.8162897370E-05.
  Using Symmetric Orthogonalization.

  SCF Guess: Superposition of Atomic Densities via on-the-fly atomic UHF.

  ==> Iterations <==

                        Total Energy        Delta E     RMS |[F,P]|

   @UHF iter SAD:   -74.66138746598790   -7.46614e+01   0.00000e+00 
   @UHF iter   1:   -75.40419970870204   -7.42812e-01   2.17530e-03 DIIS
   @UHF iter   2:   -75.42480189312050   -2.06022e-02   8.39633e-04 DIIS
   @UHF iter   3:   -75.42761495610935   -2.81306e-03   2.45900e-04 DIIS
   @UHF iter   4:   -75.42807260505009   -4.57649e-04   7.59773e-05 DIIS
   @UHF iter   5:   -75.42814917318265   -7.65681e-05   3.36704e-05 DIIS
   @UHF iter   6:   -75.42817003300721   -2.08598e-05   1.23347e-05 DIIS
   @UHF iter   7:   -75.42817351494998   -3.48194e-06   4.21209e-06 DIIS
   @UHF iter   8:   -75.42817394019158   -4.25242e-07   9.16019e-07 DIIS
   @UHF iter   9:   -75.42817395475561   -1.45640e-08   3.04791e-07 DIIS
   @UHF iter  10:   -75.42817395649672   -1.74111e-09   4.79436e-08 DIIS
   @UHF iter  11:   -75.42817395653557   -3.88525e-11   5.92899e-09 DIIS
  Energy and wave function converged.


  ==> Post-Iterations <==

   @Spin Contamination Metric:   7.031308401E-03
   @S^2 Expected:                7.500000000E-01
   @S^2 Observed:                7.570313084E-01
   @S   Expected:                5.000000000E-01
   @S   Observed:                5.000000000E-01

    Orbital Energies [Eh]
    ---------------------

    Alpha Occupied:                                                       

       1A1   -20.636998     2A1    -1.391894     3A1    -0.685610  
       1B1    -0.659286     1B2    -0.562170  

    Alpha Virtual:                                                        

       4A1     0.024103     5A1     0.088837     2B1     0.103536  
       2B2     0.108916     6A1     0.137728     3B1     0.179459  
       7A1     0.182503     3B2     0.182752     8A1     0.286993  
       9A1     0.399376     1A2     0.400120    10A1     0.423143  
       4B1     0.453330     4B2     0.468602     5B1     0.474632  
       5B2     0.484957    11A1     0.487707    12A1     0.514574  
       2A2     0.528260    13A1     0.528565     6B1     0.548243  
       6B2     0.558275    14A1     0.662871     7B1     0.972068  
       7B2     0.974978     8B1     0.975709     8B2     0.989820  
      15A1     0.996997    16A1     1.079472     9B1     1.127212  
      17A1     1.139118     9B2     1.139726     3A2     1.167585  
      18A1     1.170505     4A2     1.207720    19A1     1.209104  
      10B1     1.244783    20A1     1.251307    10B2     1.253645  
      11B1     1.279129    11B2     1.279207     5A2     1.329027  
      21A1     1.329341    22A1     1.395296    12B1     1.476064  
      12B2     1.505913    23A1     1.714647    13B1     1.860032  
      13B2     1.899029    24A1     2.210743     6A2     2.289741  
      25A1     2.290865    14B1     2.309425    14B2     2.324376  
       7A2     2.568156    26A1     2.568156    27A1     2.619182  
      15B1     2.639915    15B2     2.663004    28A1     2.714593  
      16B1     2.832823    16B2     2.832870    17B1     2.912789  
      17B2     2.915788    29A1     2.917694    18B1     2.927486  
       8A2     2.932859    30A1     2.944034    18B2     2.949148  
       9A2     3.048153    31A1     3.048245    32A1     3.125570  
      10A2     3.125571    33A1     3.133101    11A2     3.182493  
      34A1     3.182547    19B1     3.299053    19B2     3.320551  
      20B1     3.332637    20B2     3.332709    35A1     3.440673  
      21B1     3.544560    21B2     3.568228    36A1     3.645348  
      12A2     3.823211    37A1     3.824922    38A1     4.272519  
      22B1     4.548924    22B2     4.583745    23B1     4.667475  
      23B2     4.667553    24B1     4.732803    24B2     4.786180  
      39A1     5.050619    13A2     5.412917    40A1     5.413113  
      41A1     5.634246    25B1     5.799974    25B2     5.825807  
      14A2     5.913803    42A1     5.914002    26B1     6.153568  
      26B2     6.175437    27B1     6.185292    27B2     6.185292  
      43A1     6.247546    15A2     6.459858    44A1     6.459858  
      28B1     6.658265    28B2     6.704288    45A1     6.888548  
      46A1     7.086015    16A2     7.086111    47A1     7.103263  
      29B1     7.153008    29B2     7.155176    30B1     7.182293  
      17A2     7.188681    48A1     7.194373    30B2     7.211751  
      31B1     7.233884    31B2     7.236344    32B1     7.591011  
      32B2     7.591037    49A1     7.712968    18A2     7.714457  
      50A1     7.815890    51A1     7.904588    19A2     7.904609  
      33B1     8.499621    33B2     8.538595    52A1     8.611048  
      53A1     8.828286    34B1     9.114932    34B2     9.160088  
      20A2     9.400577    54A1     9.401064    55A1    10.317074  
      35B1    10.448533    35B2    10.495606    56A1    12.790679  
      36B1    12.974547    36B2    12.974547    21A2    13.138430  
      57A1    13.138430    58A1    13.507252    22A2    13.507391  
      37B1    13.904116    37B2    13.904119    59A1    14.086285  
      60A1    14.130107    23A2    14.130108    38B1    14.205345  
      38B2    14.224046    39B1    14.476367    39B2    14.491349  
      61A1    14.700119    62A1    15.574165    24A2    15.685236  
      63A1    15.687201    40B1    15.959276    40B2    16.000570  
      41B1    16.211153    41B2    16.211153    25A2    16.349996  
      64A1    16.349996    42B1    16.744901    42B2    16.793992  
      43B1    16.879011    43B2    16.879019    65A1    16.896189  
      44B1    17.828859    44B2    17.861756    66A1    17.881611  
      26A2    17.886228    67A1    18.028288    45B1    18.166177  
      45B2    18.196123    68A1    18.622256    69A1    19.068589  
      27A2    19.068590    46B1    19.176513    46B2    19.176522  
      47B1    19.220014    47B2    19.220024    70A1    19.551753  
      28A2    19.586741    71A1    19.609903    29A2    20.012818  
      72A1    20.013895    48B1    20.508896    48B2    20.563491  
      73A1    21.123330    30A2    22.407487    74A1    22.408022  
      49B1    23.199601    49B2    23.250214    50B1    24.040294  
      50B2    24.086610    75A1    26.093304    76A1    26.301991  
      77A1    65.038029  

    Beta Occupied:                                                        

       1A1   -20.597396     2A1    -1.234089     3A1    -0.641533  
       1B2    -0.514218  

    Beta Virtual:                                                         

       4A1     0.024957     1B1     0.055917     5A1     0.089749  
       2B2     0.109964     6A1     0.140803     2B1     0.147619  
       3B2     0.182696     7A1     0.184236     3B1     0.190791  
       8A1     0.291911     1A2     0.405265     9A1     0.405313  
      10A1     0.426009     4B2     0.471875     4B1     0.479428  
       5B2     0.485056    11A1     0.490772     5B1     0.508396  
      12A1     0.519890     2A2     0.528591    13A1     0.528842  
       6B2     0.559835     6B1     0.578266    14A1     0.672566  
       7B2     0.978800     7B1     0.978817     8B2     0.990569  
      15A1     1.003748     8B1     1.004107    16A1     1.085505  
       9B1     1.131594     9B2     1.139143    17A1     1.148179  
       3A2     1.173579    18A1     1.174191     4A2     1.230120  
      19A1     1.230279    10B1     1.252971    10B2     1.253982  
      20A1     1.257823    11B1     1.279696    11B2     1.279699  
       5A2     1.342689    21A1     1.343187    22A1     1.405674  
      12B2     1.511658    12B1     1.531613    23A1     1.722983  
      13B2     1.909809    13B1     1.938462    24A1     2.217978  
       6A2     2.297599    25A1     2.297918    14B1     2.315188  
      14B2     2.322738    26A1     2.574480     7A2     2.574480  
      27A1     2.630883    15B1     2.660712    15B2     2.665398  
      28A1     2.723492    16B2     2.853034    16B1     2.853036  
      17B1     2.923290    17B2     2.923799    29A1     2.932869  
       8A2     2.939737    18B1     2.942415    30A1     2.948319  
      18B2     2.950211     9A2     3.062156    31A1     3.062288  
      32A1     3.127551    10A2     3.127552    33A1     3.142345  
      11A2     3.237496    34A1     3.238489    19B2     3.324440  
      19B1     3.326243    20B2     3.334042    20B1     3.334077  
      35A1     3.454607    21B1     3.556737    21B2     3.570096  
      36A1     3.656284    12A2     3.839231    37A1     3.839528  
      38A1     4.281330    22B1     4.585917    22B2     4.590609  
      23B1     4.670970    23B2     4.670975    24B2     4.800425  
      24B1     4.814425    39A1     5.068819    40A1     5.418590  
      13A2     5.418611    41A1     5.641490    25B1     5.817939  
      25B2     5.828063    14A2     5.921669    42A1     5.921686  
      26B1     6.161930    26B2     6.175721    27B1     6.196876  
      27B2     6.196876    43A1     6.257164    44A1     6.469742  
      15A2     6.469742    28B1     6.702540    28B2     6.713750  
      45A1     6.911897    46A1     7.110495    16A2     7.110688  
      47A1     7.112982    29B1     7.172195    29B2     7.174006  
      30B1     7.194185    17A2     7.199367    48A1     7.201674  
      30B2     7.215961    31B1     7.255388    31B2     7.255667  
      32B1     7.623760    32B2     7.623762    49A1     7.744408  
      18A2     7.745175    50A1     7.823408    19A2     7.946835  
      51A1     7.947306    33B1     8.520951    33B2     8.542866  
      52A1     8.628945    53A1     8.842986    34B1     9.150512  
      34B2     9.168678    20A2     9.439318    54A1     9.439411  
      55A1    10.327530    35B1    10.492978    35B2    10.505612  
      56A1    12.820031    36B1    12.974971    36B2    12.974971  
      57A1    13.138699    21A2    13.138699    58A1    13.510332  
      22A2    13.510413    37B1    13.905986    37B2    13.905987  
      59A1    14.092278    60A1    14.128906    23A2    14.128910  
      38B1    14.210588    38B2    14.223996    39B1    14.480559  
      39B2    14.491466    61A1    14.703259    62A1    15.580007  
      24A2    15.691135    63A1    15.692111    40B1    15.995797  
      40B2    16.008624    41B1    16.236357    41B2    16.236357  
      25A2    16.370688    64A1    16.370688    42B1    16.789422  
      42B2    16.804289    43B1    16.895426    43B2    16.895429  
      65A1    16.899456    44B1    17.839869    44B2    17.863753  
      66A1    17.899062    26A2    17.901268    67A1    18.036393  
      45B1    18.180385    45B2    18.199136    68A1    18.645466  
      69A1    19.107020    27A2    19.107020    46B1    19.210096  
      46B2    19.210097    47B1    19.264882    47B2    19.264883  
      70A1    19.577109    28A2    19.612061    71A1    19.621122  
      29A2    20.041812    72A1    20.042159    48B1    20.542606  
      48B2    20.573543    73A1    21.139966    30A2    22.453438  
      74A1    22.453535    49B1    23.231932    49B2    23.258743  
      50B1    24.071692    50B2    24.095322    75A1    26.101699  
      76A1    26.312294    77A1    65.053444  

    Final Occupation by Irrep:
             A1    A2    B1    B2 
    DOCC [     3,    0,    0,    1 ]
    SOCC [     0,    0,    1,    0 ]

  @UHF Final Energy:   -75.42817395653557

   => Energetics <=

    Nuclear Repulsion Energy =              4.4098100889166671
    One-Electron Energy =                -112.7527734785336122
    Two-Electron Energy =                  32.9147894330813671
    Total Energy =                        -75.4281739565355736

  UHF NO Occupations:
  HONO-2 :    2 A1 1.9992431
  HONO-1 :    3 A1 1.9978649
  HONO-0 :    1 B1 1.0000000
  LUNO+0 :    4 A1 0.0021351
  LUNO+1 :    5 A1 0.0007569
  LUNO+2 :    2 B2 0.0006251
  LUNO+3 :    6 A1 0.0000013


Computation Completed


Properties will be evaluated at   0.000000,   0.000000,   0.000000 [a0]

Properties computed using the SCF density matrix

  Nuclear Dipole Moment: [e a0]
     X:     0.0000      Y:     0.0000      Z:     0.8464

  Electronic Dipole Moment: [e a0]
     X:     0.0000      Y:     0.0000      Z:    -0.1580

  Dipole Moment: [e a0]
     X:     0.0000      Y:     0.0000      Z:     0.6883     Total:     0.6883

  Dipole Moment: [D]
     X:     0.0000      Y:     0.0000      Z:     1.7495     Total:     1.7495


*** tstop() called on c4-20.compute.lan at Tue Feb 23 13:22:42 2021
Module time:
	user time   =      35.07 seconds =       0.58 minutes
	system time =       2.86 seconds =       0.05 minutes
	total time  =         38 seconds =       0.63 minutes
Total time:
	user time   =      35.07 seconds =       0.58 minutes
	system time =       2.86 seconds =       0.05 minutes
	total time  =         38 seconds =       0.63 minutes

*** tstart() called on c4-20.compute.lan
*** at Tue Feb 23 13:22:42 2021


         ------------------------------------------------------------
                                   SCF GRAD                          
                          Rob Parrish, Justin Turney,                
                       Andy Simmonett, and Alex Sokolov              
         ------------------------------------------------------------

  ==> Geometry <==

    Molecular point group: c2v
    Full point group: C_inf_v

    Geometry (in Angstrom), charge = 0, multiplicity = 2:

       Center              X                  Y                   Z               Mass       
    ------------   -----------------  -----------------  -----------------  -----------------
         O            0.000000000000     0.000000000000    -0.056903302100    15.994914619570
         H            0.000000000000     0.000000000000     0.903096697900     1.007825032230

  Nuclear repulsion =    4.409810088916667

  ==> Basis Set <==

  Basis Set: AUG-CC-PV5Z
    Blend: AUG-CC-PV5Z
    Number of shells: 47
    Number of basis function: 207
    Number of Cartesian functions: 287
    Spherical Harmonics?: true
    Max angular momentum: 5

  ==> DirectJKGrad: Integral-Direct SCF Gradients <==

    Gradient:                    1
    J tasked:                  Yes
    K tasked:                  Yes
    wK tasked:                  No
    Integrals threads:           1
    Schwarz Cutoff:          0E+00


  -Total Gradient:
     Atom            X                  Y                   Z
    ------   -----------------  -----------------  -----------------
       1        0.000000000000     0.000000000000    -0.010481651842
       2        0.000000000000     0.000000000000     0.010481651842


*** tstop() called on c4-20.compute.lan at Tue Feb 23 13:25:54 2021
Module time:
	user time   =     191.46 seconds =       3.19 minutes
	system time =       0.28 seconds =       0.00 minutes
	total time  =        192 seconds =       3.20 minutes
Total time:
	user time   =     226.53 seconds =       3.78 minutes
	system time =       3.14 seconds =       0.05 minutes
	total time  =        230 seconds =       3.83 minutes

			-----------------------------------------
			 OPTKING 2.0: for geometry optimizations 
			  - R.A. King,  Bethel University        
			-----------------------------------------

	Internal coordinates to be generated automatically.
	Detected frag 1 with atoms:  1 2
	---Fragment 1 Bond Connectivity---
	 1 : 2
	 2 : 1

	---Fragment 1 Geometry and Gradient---
	 O           0.0000000000        0.0000000000       -0.1075316566
	 H           0.0000000000        0.0000000000        1.7066054238
	             0.0000000000        0.0000000000       -0.0104816518
	             0.0000000000        0.0000000000        0.0104816518

	Previous optimization step data not found.  Starting new optimization.

	---Fragment 1 Intrafragment Coordinates---
	 - Coordinate -           - BOHR/RAD -       - ANG/DEG -
	 R(1,2)           =         1.814137	       0.960000

	Current energy   :       -75.4281739565

	Generating empirical Hessian (Schlegel '84) for each fragment.
	Taking RFO optimization step.
	Going to follow RFO solution 1.
	Using RFO vector 1.
	Norm of target step-size    0.01889
	Projected energy change by RFO approximation:        -0.0000195907

	Back-transformation to cartesian coordinates...
	Successfully converged to displaced geometry.

	--- Internal Coordinate Step in ANG or DEG, aJ/ANG or AJ/DEG ---
	 ---------------------------------------------------------------------------
	   Coordinate                Previous        Force       Change         New 
	   ----------                --------       ------       ------       ------
	    1 R(1,2)          =      0.960000    -0.086355    -0.009995     0.950005
	 ---------------------------------------------------------------------------
	Successfully symmetrized geometry.

  ==> Convergence Check <==

  Measures of convergence in internal coordinates in au.
  Criteria marked as inactive (o), active & met (*), and active & unmet ( ).
  --------------------------------------------------------------------------------------------- ~
   Step     Total Energy     Delta E     MAX Force     RMS Force      MAX Disp      RMS Disp    ~
  --------------------------------------------------------------------------------------------- ~
    Convergence Criteria             o    2.00e-06 *    1.00e-06 *    6.00e-06 *    4.00e-06 *  ~
  --------------------------------------------------------------------------------------------- ~
      1     -75.42817396   -7.54e+01 o    1.05e-02      1.05e-02      1.89e-02      1.89e-02    ~
  ---------------------------------------------------------------------------------------------

	Writing optimization data to binary file.
	Structure for next step:
	Cartesian Geometry (in Angstrom)
	    O     0.0000000000   0.0000000000  -0.0519057067
	    H     0.0000000000   0.0000000000   0.8980990991
			--------------------------
			 OPTKING Finished Execution 
			--------------------------

    Structure for next step:
    Molecular point group: c2v
    Full point group: C_inf_v

    Geometry (in Angstrom), charge = 0, multiplicity = 2:

    O       
    H             1          R1

    R1        =    0.9500048095

gradient() will perform analytic gradient computation.

*** tstart() called on c4-20.compute.lan
*** at Tue Feb 23 13:25:54 2021

   => Loading Basis Set <=

    Name: AUG-CC-PV5Z
    Role: ORBITAL
    Keyword: BASIS
    atoms 1 entry O          line   541 file /apps/gb/PSI4/1.4.0/share/psi4/basis/aug-cc-pv5z.gbs 
    atoms 2 entry H          line    42 file /apps/gb/PSI4/1.4.0/share/psi4/basis/aug-cc-pv5z.gbs 


         ---------------------------------------------------------
                                   SCF
               by Justin Turney, Rob Parrish, Andy Simmonett
                          and Daniel G. A. Smith
                              UHF Reference
                        1 Threads,   9536 MiB Core
         ---------------------------------------------------------

  ==> Geometry <==

    Molecular point group: c2v
    Full point group: C_inf_v

    Geometry (in Angstrom), charge = 0, multiplicity = 2:

       Center              X                  Y                   Z               Mass       
    ------------   -----------------  -----------------  -----------------  -----------------
         O            0.000000000000     0.000000000000    -0.056310844451    15.994914619570
         H            0.000000000000     0.000000000000     0.893693965061     1.007825032230

  Running in c2v symmetry.

  Rotational constants: A = ************  B =     19.70138  C =     19.70138 [cm^-1]
  Rotational constants: A = ************  B = 590632.62017  C = 590632.62017 [MHz]
  Nuclear repulsion =    4.456206582296433

  Charge       = 0
  Multiplicity = 2
  Electrons    = 9
  Nalpha       = 5
  Nbeta        = 4

  ==> Algorithm <==

  SCF Algorithm Type is PK.
  DIIS enabled.
  MOM disabled.
  Fractional occupation disabled.
  Guess Type is READ.
  Energy threshold   = 1.00e-10
  Density threshold  = 1.00e-08
  Integral threshold = 0.00e+00

  ==> Primary Basis <==

  Basis Set: AUG-CC-PV5Z
    Blend: AUG-CC-PV5Z
    Number of shells: 47
    Number of basis function: 207
    Number of Cartesian functions: 287
    Spherical Harmonics?: true
    Max angular momentum: 5

   => Loading Basis Set <=

    Name: AUG-CC-PV5Z
    Role: ORBITAL
    Keyword: BASIS
    atoms 1 entry O          line   541 file /apps/gb/PSI4/1.4.0/share/psi4/basis/aug-cc-pv5z.gbs 
    atoms 2 entry H          line    42 file /apps/gb/PSI4/1.4.0/share/psi4/basis/aug-cc-pv5z.gbs 

  Reading orbitals from file 180, no projection.

  ==> Pre-Iterations <==

   -------------------------------------------------------
    Irrep   Nso     Nmo     Nalpha   Nbeta   Ndocc  Nsocc
   -------------------------------------------------------
     A1        77      77       0       0       0       0
     A2        30      30       0       0       0       0
     B1        50      50       0       0       0       0
     B2        50      50       0       0       0       0
   -------------------------------------------------------
    Total     207     207       5       4       4       1
   -------------------------------------------------------

  ==> Integral Setup <==

  Using in-core PK algorithm.
   Calculation information:
      Number of atoms:                   2
      Number of AO shells:              47
      Number of primitives:             71
      Number of atomic orbitals:       287
      Number of basis functions:       207

      Integral cutoff                 1.00e-12
      Number of threads:                 1

  Performing in-core PK
  Using 463476312 doubles for integral storage.
  We computed 636756 shell quartets total.
  Whereas there are 636756 unique shell quartets.

  ==> DiskJK: Disk-Based J/K Matrices <==

    J tasked:                  Yes
    K tasked:                  Yes
    wK tasked:                  No
    Memory [MiB]:             7152
    Schwarz Cutoff:          1E-12

    OpenMP threads:              1

  Minimum eigenvalue in the overlap matrix is 1.7650889692E-05.
  Using Symmetric Orthogonalization.

  SCF Guess: Orbitals guess was supplied from a previous computation.

  ==> Iterations <==

                        Total Energy        Delta E     RMS |[F,P]|

   @UHF iter   0:   -75.43216312482977   -7.54322e+01   1.77642e-04 
   @UHF iter   1:   -75.42826836276994    3.89476e-03   2.28107e-05 DIIS
   @UHF iter   2:   -75.42827146898432   -3.10621e-06   5.70500e-06 DIIS
   @UHF iter   3:   -75.42827176244093   -2.93457e-07   2.20455e-06 DIIS
   @UHF iter   4:   -75.42827184257169   -8.01308e-08   7.62675e-07 DIIS
   @UHF iter   5:   -75.42827185288085   -1.03092e-08   3.65604e-07 DIIS
   @UHF iter   6:   -75.42827185497016   -2.08931e-09   1.89000e-07 DIIS
   @UHF iter   7:   -75.42827185573381   -7.63649e-10   4.34480e-08 DIIS
   @UHF iter   8:   -75.42827185577241   -3.85967e-11   5.99210e-09 DIIS
  Energy and wave function converged.


  ==> Post-Iterations <==

   @Spin Contamination Metric:   6.909327605E-03
   @S^2 Expected:                7.500000000E-01
   @S^2 Observed:                7.569093276E-01
   @S   Expected:                5.000000000E-01
   @S   Observed:                5.000000000E-01

    Orbital Energies [Eh]
    ---------------------

    Alpha Occupied:                                                       

       1A1   -20.636164     2A1    -1.394938     3A1    -0.688494  
       1B1    -0.659694     1B2    -0.562607  

    Alpha Virtual:                                                        

       4A1     0.024190     5A1     0.088839     2B1     0.103417  
       2B2     0.108779     6A1     0.138101     3B1     0.179739  
       7A1     0.182564     3B2     0.183052     8A1     0.287985  
       9A1     0.399270     1A2     0.399960    10A1     0.424881  
       4B1     0.453755     4B2     0.469232     5B1     0.474442  
       5B2     0.484548    11A1     0.487870    12A1     0.513989  
       2A2     0.527612    13A1     0.527924     6B1     0.547299  
       6B2     0.557288    14A1     0.666458     7B1     0.972630  
       7B2     0.975054     8B1     0.975999     8B2     0.990759  
      15A1     0.995892    16A1     1.080839     9B1     1.128296  
      17A1     1.138501     9B2     1.140759     3A2     1.168107  
      18A1     1.170959     4A2     1.208905    19A1     1.210250  
      10B1     1.245322    20A1     1.249803    10B2     1.254198  
      11B1     1.278657    11B2     1.278744     5A2     1.326171  
      21A1     1.326491    22A1     1.402292    12B1     1.472931  
      12B2     1.502750    23A1     1.719461    13B1     1.864008  
      13B2     1.903030    24A1     2.206240     6A2     2.300499  
      25A1     2.301489    14B1     2.313607    14B2     2.328780  
       7A2     2.568372    26A1     2.568372    27A1     2.615468  
      15B1     2.647526    15B2     2.670820    28A1     2.721067  
      16B1     2.834992    16B2     2.835043    17B1     2.912964  
      17B2     2.916938    29A1     2.917865    18B1     2.926614  
       8A2     2.932288    30A1     2.944254    18B2     2.947248  
       9A2     3.041207    31A1     3.041366    32A1     3.128545  
      10A2     3.128545    33A1     3.142102    11A2     3.186650  
      34A1     3.186726    19B1     3.286886    19B2     3.307850  
      20B1     3.324102    20B2     3.324155    35A1     3.451908  
      21B1     3.556124    21B2     3.580092    36A1     3.653042  
      12A2     3.831017    37A1     3.832733    38A1     4.254416  
      22B1     4.547251    22B2     4.584200    23B1     4.690021  
      23B2     4.690077    24B1     4.751381    24B2     4.803145  
      39A1     5.075117    13A2     5.428485    40A1     5.428668  
      41A1     5.631743    25B1     5.801344    25B2     5.826436  
      14A2     5.916088    42A1     5.916310    26B1     6.164261  
      26B2     6.184822    27B1     6.184822    27B2     6.186527  
      43A1     6.281944    15A2     6.467242    44A1     6.467242  
      28B1     6.658243    28B2     6.705151    45A1     6.910383  
      46A1     7.085938    16A2     7.086020    47A1     7.105176  
      29B1     7.157351    29B2     7.160682    30B1     7.184014  
      17A2     7.188911    48A1     7.194582    30B2     7.212984  
      31B1     7.237348    31B2     7.238925    32B1     7.600131  
      32B2     7.600157    49A1     7.723515    18A2     7.725263  
      50A1     7.810612    51A1     7.904360    19A2     7.904751  
      33B1     8.531686    33B2     8.570798    52A1     8.591239  
      53A1     8.836832    34B1     9.154320    34B2     9.199678  
      20A2     9.441215    54A1     9.441714    55A1    10.383810  
      35B1    10.457115    35B2    10.503846    56A1    12.809635  
      36B1    12.981407    36B2    12.981407    21A2    13.143480  
      57A1    13.143480    58A1    13.524695    22A2    13.524832  
      37B1    13.942962    37B2    13.942965    59A1    14.103019  
      23A2    14.134575    60A1    14.134580    38B1    14.232581  
      38B2    14.250294    39B1    14.497920    39B2    14.514515  
      61A1    14.753161    62A1    15.622149    24A2    15.753633  
      63A1    15.755380    40B1    15.986215    40B2    16.026492  
      41B1    16.210723    41B2    16.210723    25A2    16.354841  
      64A1    16.354842    42B1    16.707445    42B2    16.758238  
      65A1    16.875291    43B1    16.909888    43B2    16.909896  
      66A1    17.906094    26A2    17.913777    44B1    17.926414  
      44B2    17.960352    67A1    18.003296    45B1    18.169355  
      45B2    18.198199    68A1    18.701728    69A1    19.068612  
      27A2    19.068613    46B1    19.175545    46B2    19.175553  
      47B1    19.223227    47B2    19.223238    70A1    19.595362  
      28A2    19.606228    71A1    19.679260    29A2    20.083498  
      72A1    20.084644    48B1    20.582637    48B2    20.637143  
      73A1    21.227201    30A2    22.422595    74A1    22.423170  
      49B1    23.180543    49B2    23.231576    50B1    24.224211  
      50B2    24.269941    75A1    26.308269    76A1    26.378418  
      77A1    65.075406  

    Beta Occupied:                                                        

       1A1   -20.596653     2A1    -1.237812     3A1    -0.644218  
       1B2    -0.514753  

    Beta Virtual:                                                         

       4A1     0.025024     1B1     0.055705     5A1     0.089715  
       2B2     0.109819     6A1     0.141142     2B1     0.147201  
       3B2     0.183014     7A1     0.184276     3B1     0.191193  
       8A1     0.292766     1A2     0.405108     9A1     0.405157  
      10A1     0.427899     4B2     0.472716     4B1     0.479834  
       5B2     0.484462    11A1     0.490905     5B1     0.508059  
      12A1     0.519277     2A2     0.527964    13A1     0.528220  
       6B2     0.558831     6B1     0.577209    14A1     0.676212  
       7B2     0.978892     7B1     0.978909     8B2     0.991643  
      15A1     1.002826     8B1     1.005482    16A1     1.086776  
       9B1     1.132534     9B2     1.140148    17A1     1.147657  
       3A2     1.174343    18A1     1.174933     4A2     1.230896  
      19A1     1.231049    10B1     1.253404    10B2     1.254556  
      20A1     1.256083    11B1     1.279232    11B2     1.279236  
       5A2     1.340078    21A1     1.340581    22A1     1.412935  
      12B2     1.508423    12B1     1.528400    23A1     1.727773  
      13B2     1.913813    13B1     1.942482    24A1     2.213418  
       6A2     2.308413    25A1     2.308682    14B1     2.319610  
      14B2     2.327277    26A1     2.574718     7A2     2.574718  
      27A1     2.627230    15B1     2.668797    15B2     2.673291  
      28A1     2.730240    16B2     2.855661    16B1     2.855663  
      17B1     2.923819    17B2     2.924507    29A1     2.932495  
       8A2     2.939167    18B1     2.940560    18B2     2.948284  
      30A1     2.948386     9A2     3.055567    31A1     3.055706  
      32A1     3.130549    10A2     3.130549    33A1     3.151465  
      11A2     3.241626    34A1     3.242629    19B2     3.311558  
      19B1     3.313141    20B2     3.325455    20B1     3.325468  
      35A1     3.466208    21B1     3.568537    21B2     3.581998  
      36A1     3.663768    12A2     3.846561    37A1     3.846869  
      38A1     4.263238    22B1     4.588389    22B2     4.591764  
      23B1     4.693624    23B2     4.693627    24B2     4.816802  
      24B1     4.829723    39A1     5.093807    40A1     5.434174  
      13A2     5.434196    41A1     5.638765    25B1     5.818506  
      25B2     5.828556    14A2     5.924539    42A1     5.924567  
      26B1     6.172944    26B2     6.186868    27B1     6.196409  
      27B2     6.196409    43A1     6.291136    44A1     6.477150  
      15A2     6.477150    28B1     6.703008    28B2     6.714722  
      45A1     6.934403    46A1     7.110459    16A2     7.110571  
      47A1     7.114534    29B1     7.175742    29B2     7.178650  
      30B1     7.195194    17A2     7.199617    48A1     7.201929  
      30B2     7.216014    31B1     7.261118    31B2     7.261267  
      32B1     7.631774    32B2     7.631777    49A1     7.754177  
      18A2     7.755176    50A1     7.817851    19A2     7.947753  
      51A1     7.948063    33B1     8.552987    33B2     8.575046  
      52A1     8.606994    53A1     8.853337    34B1     9.190410  
      34B2     9.208359    20A2     9.479608    54A1     9.479696  
      55A1    10.394173    35B1    10.500939    35B2    10.513631  
      56A1    12.839202    36B1    12.981982    36B2    12.981982  
      57A1    13.143859    21A2    13.143859    58A1    13.527898  
      22A2    13.527981    37B1    13.944994    37B2    13.944995  
      59A1    14.108725    60A1    14.133452    23A2    14.133453  
      38B1    14.237529    38B2    14.250183    39B1    14.502787  
      39B2    14.514814    61A1    14.756802    62A1    15.628032  
      24A2    15.759763    63A1    15.760630    40B1    16.020531  
      40B2    16.034056    41B1    16.235915    41B2    16.235915  
      25A2    16.375493    64A1    16.375493    42B1    16.754300  
      42B2    16.769075    65A1    16.878293    43B1    16.926192  
      43B2    16.926195    66A1    17.925274    26A2    17.929041  
      44B1    17.937949    44B2    17.962535    67A1    18.010385  
      45B1    18.182952    45B2    18.201007    68A1    18.724514  
      69A1    19.107001    27A2    19.107002    46B1    19.209242  
      46B2    19.209243    47B1    19.267875    47B2    19.267876  
      70A1    19.626300    28A2    19.632101    71A1    19.685626  
      29A2    20.111425    72A1    20.111811    48B1    20.616529  
      48B2    20.647172    73A1    21.243521    30A2    22.468429  
      74A1    22.468531    49B1    23.213478    49B2    23.240216  
      50B1    24.254360    50B2    24.278296    75A1    26.315682  
      76A1    26.389364    77A1    65.090781  

    Final Occupation by Irrep:
             A1    A2    B1    B2 
    DOCC [     3,    0,    0,    1 ]
    SOCC [     0,    0,    1,    0 ]

  @UHF Final Energy:   -75.42827185577241

   => Energetics <=

    Nuclear Repulsion Energy =              4.4562065822964332
    One-Electron Energy =                -112.8336233365250507
    Two-Electron Energy =                  32.9491448984562112
    Total Energy =                        -75.4282718557724081

  UHF NO Occupations:
  HONO-2 :    2 A1 1.9992857
  HONO-1 :    3 A1 1.9978785
  HONO-0 :    1 B1 1.0000000
  LUNO+0 :    4 A1 0.0021215
  LUNO+1 :    5 A1 0.0007143
  LUNO+2 :    2 B2 0.0006203
  LUNO+3 :    6 A1 0.0000013


Computation Completed


Properties will be evaluated at   0.000000,   0.000000,   0.000000 [a0]

Properties computed using the SCF density matrix

  Nuclear Dipole Moment: [e a0]
     X:     0.0000      Y:     0.0000      Z:     0.8375

  Electronic Dipole Moment: [e a0]
     X:     0.0000      Y:     0.0000      Z:    -0.1524

  Dipole Moment: [e a0]
     X:     0.0000      Y:     0.0000      Z:     0.6852     Total:     0.6852

  Dipole Moment: [D]
     X:     0.0000      Y:     0.0000      Z:     1.7415     Total:     1.7415


*** tstop() called on c4-20.compute.lan at Tue Feb 23 13:26:27 2021
Module time:
	user time   =      31.03 seconds =       0.52 minutes
	system time =       1.76 seconds =       0.03 minutes
	total time  =         33 seconds =       0.55 minutes
Total time:
	user time   =     257.57 seconds =       4.29 minutes
	system time =       4.90 seconds =       0.08 minutes
	total time  =        263 seconds =       4.38 minutes

*** tstart() called on c4-20.compute.lan
*** at Tue Feb 23 13:26:27 2021


         ------------------------------------------------------------
                                   SCF GRAD                          
                          Rob Parrish, Justin Turney,                
                       Andy Simmonett, and Alex Sokolov              
         ------------------------------------------------------------

  ==> Geometry <==

    Molecular point group: c2v
    Full point group: C_inf_v

    Geometry (in Angstrom), charge = 0, multiplicity = 2:

       Center              X                  Y                   Z               Mass       
    ------------   -----------------  -----------------  -----------------  -----------------
         O            0.000000000000     0.000000000000    -0.056310844451    15.994914619570
         H            0.000000000000     0.000000000000     0.893693965061     1.007825032230

  Nuclear repulsion =    4.456206582296433

  ==> Basis Set <==

  Basis Set: AUG-CC-PV5Z
    Blend: AUG-CC-PV5Z
    Number of shells: 47
    Number of basis function: 207
    Number of Cartesian functions: 287
    Spherical Harmonics?: true
    Max angular momentum: 5

  ==> DirectJKGrad: Integral-Direct SCF Gradients <==

    Gradient:                    1
    J tasked:                  Yes
    K tasked:                  Yes
    wK tasked:                  No
    Integrals threads:           1
    Schwarz Cutoff:          0E+00


  -Total Gradient:
     Atom            X                  Y                   Z
    ------   -----------------  -----------------  -----------------
       1        0.000000000000     0.000000000000     0.000237244664
       2        0.000000000000     0.000000000000    -0.000237244664


*** tstop() called on c4-20.compute.lan at Tue Feb 23 13:29:39 2021
Module time:
	user time   =     191.41 seconds =       3.19 minutes
	system time =       0.19 seconds =       0.00 minutes
	total time  =        192 seconds =       3.20 minutes
Total time:
	user time   =     448.98 seconds =       7.48 minutes
	system time =       5.09 seconds =       0.08 minutes
	total time  =        455 seconds =       7.58 minutes

			-----------------------------------------
			 OPTKING 2.0: for geometry optimizations 
			  - R.A. King,  Bethel University        
			-----------------------------------------

	Previous internal coordinate definitions found.
	---Fragment 1 Geometry and Gradient---
	 O           0.0000000000        0.0000000000       -0.1064120739
	 H           0.0000000000        0.0000000000        1.6888368339
	             0.0000000000        0.0000000000        0.0002372447
	             0.0000000000        0.0000000000       -0.0002372447

	---Fragment 1 Intrafragment Coordinates---
	 - Coordinate -           - BOHR/RAD -       - ANG/DEG -
	 R(1,2)           =         1.795249	       0.950005

	Current energy   :       -75.4282718558

	Energy change for the previous step:
		Projected    :        -0.0000195907
		Actual       :        -0.0000978992
	Energy ratio indicates good step: Trust radius increased to 1.000e+00.


	Performing BFGS update.
	Previous computed or guess Hessian on step 1.
	Steps to be used in Hessian update: 1
	Taking RFO optimization step.
	Going to follow RFO solution 1.
	Using RFO vector 1.
	Norm of target step-size    0.00042
	Projected energy change by RFO approximation:        -0.0000000118

	Back-transformation to cartesian coordinates...
	Successfully converged to displaced geometry.

	--- Internal Coordinate Step in ANG or DEG, aJ/ANG or AJ/DEG ---
	 ---------------------------------------------------------------------------
	   Coordinate                Previous        Force       Change         New 
	   ----------                --------       ------       ------       ------
	    1 R(1,2)          =      0.950005     0.001955     0.000221     0.950226
	 ---------------------------------------------------------------------------
	Successfully symmetrized geometry.

  ==> Convergence Check <==

  Measures of convergence in internal coordinates in au.
  Criteria marked as inactive (o), active & met (*), and active & unmet ( ).
  ---------------------------------------------------------------------------------------------
   Step     Total Energy     Delta E     MAX Force     RMS Force      MAX Disp      RMS Disp   
  ---------------------------------------------------------------------------------------------
    Convergence Criteria             o    2.00e-06 *    1.00e-06 *    6.00e-06 *    4.00e-06 *
  ---------------------------------------------------------------------------------------------
      2     -75.42827186   -9.79e-05 o    2.37e-04      2.37e-04      4.18e-04      4.18e-04    ~
  ---------------------------------------------------------------------------------------------

	Writing optimization data to binary file.
	Structure for next step:
	Cartesian Geometry (in Angstrom)
	    O     0.0000000000   0.0000000000  -0.0564214575
	    H     0.0000000000   0.0000000000   0.8938045749
			--------------------------
			 OPTKING Finished Execution 
			--------------------------

    Structure for next step:
    Molecular point group: c2v
    Full point group: C_inf_v

    Geometry (in Angstrom), charge = 0, multiplicity = 2:

    O       
    H             1          R1

    R1        =    0.9502260361

gradient() will perform analytic gradient computation.

*** tstart() called on c4-20.compute.lan
*** at Tue Feb 23 13:29:39 2021

   => Loading Basis Set <=

    Name: AUG-CC-PV5Z
    Role: ORBITAL
    Keyword: BASIS
    atoms 1 entry O          line   541 file /apps/gb/PSI4/1.4.0/share/psi4/basis/aug-cc-pv5z.gbs 
    atoms 2 entry H          line    42 file /apps/gb/PSI4/1.4.0/share/psi4/basis/aug-cc-pv5z.gbs 


         ---------------------------------------------------------
                                   SCF
               by Justin Turney, Rob Parrish, Andy Simmonett
                          and Daniel G. A. Smith
                              UHF Reference
                        1 Threads,   9536 MiB Core
         ---------------------------------------------------------

  ==> Geometry <==

    Molecular point group: c2v
    Full point group: C_inf_v

    Geometry (in Angstrom), charge = 0, multiplicity = 2:

       Center              X                  Y                   Z               Mass       
    ------------   -----------------  -----------------  -----------------  -----------------
         O            0.000000000000     0.000000000000    -0.056323957497    15.994914619570
         H            0.000000000000     0.000000000000     0.893902078630     1.007825032230

  Running in c2v symmetry.

  Rotational constants: A = ************  B =     19.69221  C =     19.69221 [cm^-1]
  Rotational constants: A = ************  B = 590357.63624  C = 590357.63624 [MHz]
  Nuclear repulsion =    4.455169111775276

  Charge       = 0
  Multiplicity = 2
  Electrons    = 9
  Nalpha       = 5
  Nbeta        = 4

  ==> Algorithm <==

  SCF Algorithm Type is PK.
  DIIS enabled.
  MOM disabled.
  Fractional occupation disabled.
  Guess Type is READ.
  Energy threshold   = 1.00e-10
  Density threshold  = 1.00e-08
  Integral threshold = 0.00e+00

  ==> Primary Basis <==

  Basis Set: AUG-CC-PV5Z
    Blend: AUG-CC-PV5Z
    Number of shells: 47
    Number of basis function: 207
    Number of Cartesian functions: 287
    Spherical Harmonics?: true
    Max angular momentum: 5

   => Loading Basis Set <=

    Name: AUG-CC-PV5Z
    Role: ORBITAL
    Keyword: BASIS
    atoms 1 entry O          line   541 file /apps/gb/PSI4/1.4.0/share/psi4/basis/aug-cc-pv5z.gbs 
    atoms 2 entry H          line    42 file /apps/gb/PSI4/1.4.0/share/psi4/basis/aug-cc-pv5z.gbs 

  Reading orbitals from file 180, no projection.

  ==> Pre-Iterations <==

   -------------------------------------------------------
    Irrep   Nso     Nmo     Nalpha   Nbeta   Ndocc  Nsocc
   -------------------------------------------------------
     A1        77      77       0       0       0       0
     A2        30      30       0       0       0       0
     B1        50      50       0       0       0       0
     B2        50      50       0       0       0       0
   -------------------------------------------------------
    Total     207     207       5       4       4       1
   -------------------------------------------------------

  ==> Integral Setup <==

  Using in-core PK algorithm.
   Calculation information:
      Number of atoms:                   2
      Number of AO shells:              47
      Number of primitives:             71
      Number of atomic orbitals:       287
      Number of basis functions:       207

      Integral cutoff                 1.00e-12
      Number of threads:                 1

  Performing in-core PK
  Using 463476312 doubles for integral storage.
  We computed 636756 shell quartets total.
  Whereas there are 636756 unique shell quartets.

  ==> DiskJK: Disk-Based J/K Matrices <==

    J tasked:                  Yes
    K tasked:                  Yes
    wK tasked:                  No
    Memory [MiB]:             7152
    Schwarz Cutoff:          1E-12

    OpenMP threads:              1

  Minimum eigenvalue in the overlap matrix is 1.7661954588E-05.
  Using Symmetric Orthogonalization.

  SCF Guess: Orbitals guess was supplied from a previous computation.

  ==> Iterations <==

                        Total Energy        Delta E     RMS |[F,P]|

   @UHF iter   0:   -75.42818353394210   -7.54282e+01   3.95306e-06 
   @UHF iter   1:   -75.42827190196213   -8.83680e-05   5.05380e-07 DIIS
   @UHF iter   2:   -75.42827190349061   -1.52848e-09   1.26793e-07 DIIS
   @UHF iter   3:   -75.42827190363455   -1.43942e-10   4.86029e-08 DIIS
   @UHF iter   4:   -75.42827190367306   -3.85114e-11   1.69358e-08 DIIS
   @UHF iter   5:   -75.42827190367809   -5.03064e-12   8.24228e-09 DIIS
  Energy and wave function converged.


  ==> Post-Iterations <==

   @Spin Contamination Metric:   6.911779548E-03
   @S^2 Expected:                7.500000000E-01
   @S^2 Observed:                7.569117795E-01
   @S   Expected:                5.000000000E-01
   @S   Observed:                5.000000000E-01

    Orbital Energies [Eh]
    ---------------------

    Alpha Occupied:                                                       

       1A1   -20.636183     2A1    -1.394869     3A1    -0.688430  
       1B1    -0.659685     1B2    -0.562597  

    Alpha Virtual:                                                        

       4A1     0.024188     5A1     0.088839     2B1     0.103420  
       2B2     0.108782     6A1     0.138093     3B1     0.179733  
       7A1     0.182562     3B2     0.183045     8A1     0.287963  
       9A1     0.399272     1A2     0.399964    10A1     0.424843  
       4B1     0.453746     4B2     0.469218     5B1     0.474446  
       5B2     0.484557    11A1     0.487867    12A1     0.514002  
       2A2     0.527626    13A1     0.527938     6B1     0.547320  
       6B2     0.557311    14A1     0.666377     7B1     0.972618  
       7B2     0.975053     8B1     0.975992     8B2     0.990738  
      15A1     0.995918    16A1     1.080809     9B1     1.128271  
      17A1     1.138514     9B2     1.140735     3A2     1.168095  
      18A1     1.170948     4A2     1.208879    19A1     1.210225  
      10B1     1.245309    20A1     1.249837    10B2     1.254185  
      11B1     1.278669    11B2     1.278755     5A2     1.326233  
      21A1     1.326553    22A1     1.402133    12B1     1.473000  
      12B2     1.502820    23A1     1.719354    13B1     1.863922  
      13B2     1.902943    24A1     2.206340     6A2     2.300261  
      25A1     2.301253    14B1     2.313513    14B2     2.328680  
       7A2     2.568367    26A1     2.568367    27A1     2.615555  
      15B1     2.647355    15B2     2.670644    28A1     2.720920  
      16B1     2.834945    16B2     2.834996    17B1     2.912963  
      17B2     2.916913    29A1     2.917864    18B1     2.926629  
       8A2     2.932301    30A1     2.944251    18B2     2.947289  
       9A2     3.041359    31A1     3.041517    32A1     3.128479  
      10A2     3.128479    33A1     3.141902    11A2     3.186558  
      34A1     3.186633    19B1     3.287156    19B2     3.308132  
      20B1     3.324292    20B2     3.324346    35A1     3.451645  
      21B1     3.555867    21B2     3.579830    36A1     3.652873  
      12A2     3.830847    37A1     3.832562    38A1     4.254807  
      22B1     4.547319    22B2     4.584222    23B1     4.689516  
      23B2     4.689573    24B1     4.750932    24B2     4.802731  
      39A1     5.074593    13A2     5.428141    40A1     5.428325  
      41A1     5.631784    25B1     5.801323    25B2     5.826432  
      14A2     5.916042    42A1     5.916264    26B1     6.164025  
      26B2     6.184832    27B1     6.184832    27B2     6.186281  
      43A1     6.281195    15A2     6.467078    44A1     6.467078  
      28B1     6.658242    28B2     6.705132    45A1     6.909916  
      46A1     7.085940    16A2     7.086022    47A1     7.105115  
      29B1     7.157278    29B2     7.160584    30B1     7.183969  
      17A2     7.188909    48A1     7.194580    30B2     7.212951  
      31B1     7.237252    31B2     7.238847    32B1     7.599924  
      32B2     7.599949    49A1     7.723284    18A2     7.725025  
      50A1     7.810750    51A1     7.904351    19A2     7.904736  
      33B1     8.530987    33B2     8.570095    52A1     8.591717  
      53A1     8.836529    34B1     9.153440    34B2     9.198793  
      20A2     9.440313    54A1     9.440811    55A1    10.382317  
      35B1    10.456926    35B2    10.503665    56A1    12.809333  
      36B1    12.981250    36B2    12.981250    21A2    13.143365  
      57A1    13.143365    58A1    13.524301    22A2    13.524439  
      37B1    13.942086    37B2    13.942089    59A1    14.102608  
      23A2    14.134477    60A1    14.134482    38B1    14.232001  
      38B2    14.249737    39B1    14.497413    39B2    14.513971  
      61A1    14.751926    62A1    15.621060    24A2    15.752105  
      63A1    15.753856    40B1    15.985634    40B2    16.025936  
      41B1    16.210732    41B2    16.210732    25A2    16.354732  
      64A1    16.354732    42B1    16.708280    42B2    16.759032  
      65A1    16.875718    43B1    16.909187    43B2    16.909195  
      66A1    17.905653    26A2    17.913231    44B1    17.924216  
      44B2    17.958125    67A1    18.003898    45B1    18.169299  
      45B2    18.198174    68A1    18.699955    69A1    19.068612  
      27A2    19.068613    46B1    19.175569    46B2    19.175577  
      47B1    19.223153    47B2    19.223164    70A1    19.594693  
      28A2    19.605790    71A1    19.677357    29A2    20.081850  
      72A1    20.082995    48B1    20.580977    48B2    20.635485  
      73A1    21.224854    30A2    22.422258    74A1    22.422833  
      49B1    23.181011    49B2    23.232037    50B1    24.220073  
      50B2    24.265814    75A1    26.303713    76A1    26.376586  
      77A1    65.074583  

    Beta Occupied:                                                        

       1A1   -20.596669     2A1    -1.237728     3A1    -0.644159  
       1B2    -0.514741  

    Beta Virtual:                                                         

       4A1     0.025022     1B1     0.055710     5A1     0.089715  
       2B2     0.109822     6A1     0.141135     2B1     0.147211  
       3B2     0.183007     7A1     0.184275     3B1     0.191184  
       8A1     0.292748     1A2     0.405111     9A1     0.405160  
      10A1     0.427858     4B2     0.472697     4B1     0.479826  
       5B2     0.484475    11A1     0.490902     5B1     0.508066  
      12A1     0.519291     2A2     0.527977    13A1     0.528233  
       6B2     0.558854     6B1     0.577233    14A1     0.676129  
       7B2     0.978890     7B1     0.978907     8B2     0.991620  
      15A1     1.002848     8B1     1.005452    16A1     1.086747  
       9B1     1.132512     9B2     1.140125    17A1     1.147668  
       3A2     1.174327    18A1     1.174917     4A2     1.230879  
      19A1     1.231032    10B1     1.253394    10B2     1.254543  
      20A1     1.256122    11B1     1.279243    11B2     1.279247  
       5A2     1.340135    21A1     1.340638    22A1     1.412770  
      12B2     1.508495    12B1     1.528471    23A1     1.727666  
      13B2     1.913726    13B1     1.942395    24A1     2.213519  
       6A2     2.308174    25A1     2.308444    14B1     2.319510  
      14B2     2.327174    26A1     2.574712     7A2     2.574713  
      27A1     2.627316    15B1     2.668615    15B2     2.673113  
      28A1     2.730087    16B2     2.855604    16B1     2.855607  
      17B1     2.923808    17B2     2.924491    29A1     2.932505  
       8A2     2.939179    18B1     2.940599    18B2     2.948326  
      30A1     2.948387     9A2     3.055711    31A1     3.055850  
      32A1     3.130483    10A2     3.130483    33A1     3.151263  
      11A2     3.241534    34A1     3.242537    19B2     3.311843  
      19B1     3.313431    20B2     3.325645    20B1     3.325659  
      35A1     3.465937    21B1     3.568276    21B2     3.581735  
      36A1     3.663604    12A2     3.846401    37A1     3.846709  
      38A1     4.263629    22B1     4.588366    22B2     4.591771  
      23B1     4.693117    23B2     4.693121    24B2     4.816400  
      24B1     4.829347    39A1     5.093272    40A1     5.433830  
      13A2     5.433852    41A1     5.638810    25B1     5.818503  
      25B2     5.828555    14A2     5.924480    42A1     5.924507  
      26B1     6.172700    26B2     6.186621    27B1     6.196419  
      27B2     6.196419    43A1     6.290396    44A1     6.476985  
      15A2     6.476985    28B1     6.702997    28B2     6.714700  
      45A1     6.933923    46A1     7.110460    16A2     7.110574  
      47A1     7.114480    29B1     7.175687    29B2     7.178573  
      30B1     7.195166    17A2     7.199614    48A1     7.201926  
      30B2     7.216006    31B1     7.260971    31B2     7.261121  
      32B1     7.631592    32B2     7.631594    49A1     7.753964  
      18A2     7.754957    50A1     7.817994    19A2     7.947720  
      51A1     7.948033    33B1     8.552288    33B2     8.574344  
      52A1     8.607513    53A1     8.853000    34B1     9.189519  
      34B2     9.207472    20A2     9.478714    54A1     9.478801  
      55A1    10.392681    35B1    10.500764    35B2    10.513455  
      56A1    12.838895    36B1    12.981822    36B2    12.981822  
      57A1    13.143741    21A2    13.143741    58A1    13.527502  
      22A2    13.527584    37B1    13.944114    37B2    13.944116  
      59A1    14.108320    60A1    14.133353    23A2    14.133353  
      38B1    14.236956    38B2    14.249628    39B1    14.502265  
      39B2    14.514266    61A1    14.755556    62A1    15.626942  
      24A2    15.758230    63A1    15.759099    40B1    16.020003  
      40B2    16.033512    41B1    16.235925    41B2    16.235925  
      25A2    16.375384    64A1    16.375384    42B1    16.755078  
      42B2    16.769855    65A1    16.878725    43B1    16.925494  
      43B2    16.925497    66A1    17.924780    26A2    17.928490  
      44B1    17.935736    44B2    17.960303    67A1    18.011025  
      45B1    18.182912    45B2    18.200988    68A1    18.722749  
      69A1    19.107002    27A2    19.107002    46B1    19.209263  
      46B2    19.209264    47B1    19.267806    47B2    19.267807  
      70A1    19.625675    28A2    19.631650    71A1    19.683662  
      29A2    20.109802    72A1    20.110187    48B1    20.614865  
      48B2    20.645515    73A1    21.241181    30A2    22.468095  
      74A1    22.468197    49B1    23.213937    49B2    23.240676  
      50B1    24.250246    50B2    24.274176    75A1    26.311171  
      76A1    26.387495    77A1    65.089958  

    Final Occupation by Irrep:
             A1    A2    B1    B2 
    DOCC [     3,    0,    0,    1 ]
    SOCC [     0,    0,    1,    0 ]

  @UHF Final Energy:   -75.42827190367809

   => Energetics <=

    Nuclear Repulsion Energy =              4.4551691117752759
    One-Electron Energy =                -112.8318206608348930
    Two-Electron Energy =                  32.9483796453815216
    Total Energy =                        -75.4282719036780946

  UHF NO Occupations:
  HONO-2 :    2 A1 1.9992849
  HONO-1 :    3 A1 1.9978783
  HONO-0 :    1 B1 1.0000000
  LUNO+0 :    4 A1 0.0021217
  LUNO+1 :    5 A1 0.0007151
  LUNO+2 :    2 B2 0.0006204
  LUNO+3 :    6 A1 0.0000013


Computation Completed


Properties will be evaluated at   0.000000,   0.000000,   0.000000 [a0]

Properties computed using the SCF density matrix

  Nuclear Dipole Moment: [e a0]
     X:     0.0000      Y:     0.0000      Z:     0.8377

  Electronic Dipole Moment: [e a0]
     X:     0.0000      Y:     0.0000      Z:    -0.1525

  Dipole Moment: [e a0]
     X:     0.0000      Y:     0.0000      Z:     0.6852     Total:     0.6852

  Dipole Moment: [D]
     X:     0.0000      Y:     0.0000      Z:     1.7417     Total:     1.7417


*** tstop() called on c4-20.compute.lan at Tue Feb 23 13:30:09 2021
Module time:
	user time   =      28.26 seconds =       0.47 minutes
	system time =       1.73 seconds =       0.03 minutes
	total time  =         30 seconds =       0.50 minutes
Total time:
	user time   =     477.25 seconds =       7.95 minutes
	system time =       6.82 seconds =       0.11 minutes
	total time  =        485 seconds =       8.08 minutes

*** tstart() called on c4-20.compute.lan
*** at Tue Feb 23 13:30:09 2021


         ------------------------------------------------------------
                                   SCF GRAD                          
                          Rob Parrish, Justin Turney,                
                       Andy Simmonett, and Alex Sokolov              
         ------------------------------------------------------------

  ==> Geometry <==

    Molecular point group: c2v
    Full point group: C_inf_v

    Geometry (in Angstrom), charge = 0, multiplicity = 2:

       Center              X                  Y                   Z               Mass       
    ------------   -----------------  -----------------  -----------------  -----------------
         O            0.000000000000     0.000000000000    -0.056323957497    15.994914619570
         H            0.000000000000     0.000000000000     0.893902078630     1.007825032230

  Nuclear repulsion =    4.455169111775276

  ==> Basis Set <==

  Basis Set: AUG-CC-PV5Z
    Blend: AUG-CC-PV5Z
    Number of shells: 47
    Number of basis function: 207
    Number of Cartesian functions: 287
    Spherical Harmonics?: true
    Max angular momentum: 5

  ==> DirectJKGrad: Integral-Direct SCF Gradients <==

    Gradient:                    1
    J tasked:                  Yes
    K tasked:                  Yes
    wK tasked:                  No
    Integrals threads:           1
    Schwarz Cutoff:          0E+00


  -Total Gradient:
     Atom            X                  Y                   Z
    ------   -----------------  -----------------  -----------------
       1        0.000000000000     0.000000000000    -0.000007998548
       2        0.000000000000     0.000000000000     0.000007998548


*** tstop() called on c4-20.compute.lan at Tue Feb 23 13:33:21 2021
Module time:
	user time   =     190.95 seconds =       3.18 minutes
	system time =       0.21 seconds =       0.00 minutes
	total time  =        192 seconds =       3.20 minutes
Total time:
	user time   =     668.20 seconds =      11.14 minutes
	system time =       7.03 seconds =       0.12 minutes
	total time  =        677 seconds =      11.28 minutes

			-----------------------------------------
			 OPTKING 2.0: for geometry optimizations 
			  - R.A. King,  Bethel University        
			-----------------------------------------

	Previous internal coordinate definitions found.
	---Fragment 1 Geometry and Gradient---
	 O           0.0000000000        0.0000000000       -0.1064368540
	 H           0.0000000000        0.0000000000        1.6892301116
	             0.0000000000        0.0000000000       -0.0000079985
	             0.0000000000        0.0000000000        0.0000079985

	---Fragment 1 Intrafragment Coordinates---
	 - Coordinate -           - BOHR/RAD -       - ANG/DEG -
	 R(1,2)           =         1.795667	       0.950226

	Current energy   :       -75.4282719037

	Energy change for the previous step:
		Projected    :        -0.0000000118
		Actual       :        -0.0000000479

	Performing BFGS update.
	Previous computed or guess Hessian on step 1.
	Steps to be used in Hessian update: 2 1
	Taking RFO optimization step.
	Going to follow RFO solution 1.
	Using RFO vector 1.
	Norm of target step-size    0.00001
	Projected energy change by RFO approximation:        -0.0000000000

	Back-transformation to cartesian coordinates...
	Successfully converged to displaced geometry.

	--- Internal Coordinate Step in ANG or DEG, aJ/ANG or AJ/DEG ---
	 ---------------------------------------------------------------------------
	   Coordinate                Previous        Force       Change         New 
	   ----------                --------       ------       ------       ------
	    1 R(1,2)          =      0.950226    -0.000066    -0.000007     0.950219
	 ---------------------------------------------------------------------------
	Successfully symmetrized geometry.

  ==> Convergence Check <==

  Measures of convergence in internal coordinates in au.
  Criteria marked as inactive (o), active & met (*), and active & unmet ( ).
  ---------------------------------------------------------------------------------------------
   Step     Total Energy     Delta E     MAX Force     RMS Force      MAX Disp      RMS Disp   
  ---------------------------------------------------------------------------------------------
    Convergence Criteria             o    2.00e-06 *    1.00e-06 *    6.00e-06 *    4.00e-06 *
  ---------------------------------------------------------------------------------------------
      3     -75.42827190   -4.79e-08 o    8.00e-06      8.00e-06      1.41e-05      1.41e-05    ~
  ---------------------------------------------------------------------------------------------

	Writing optimization data to binary file.
	Structure for next step:
	Cartesian Geometry (in Angstrom)
	    O     0.0000000000   0.0000000000  -0.0563202252
	    H     0.0000000000   0.0000000000   0.8938983430
			--------------------------
			 OPTKING Finished Execution 
			--------------------------

    Structure for next step:
    Molecular point group: c2v
    Full point group: C_inf_v

    Geometry (in Angstrom), charge = 0, multiplicity = 2:

    O       
    H             1          R1

    R1        =    0.9502185719

gradient() will perform analytic gradient computation.

*** tstart() called on c4-20.compute.lan
*** at Tue Feb 23 13:33:21 2021

   => Loading Basis Set <=

    Name: AUG-CC-PV5Z
    Role: ORBITAL
    Keyword: BASIS
    atoms 1 entry O          line   541 file /apps/gb/PSI4/1.4.0/share/psi4/basis/aug-cc-pv5z.gbs 
    atoms 2 entry H          line    42 file /apps/gb/PSI4/1.4.0/share/psi4/basis/aug-cc-pv5z.gbs 


         ---------------------------------------------------------
                                   SCF
               by Justin Turney, Rob Parrish, Andy Simmonett
                          and Daniel G. A. Smith
                              UHF Reference
                        1 Threads,   9536 MiB Core
         ---------------------------------------------------------

  ==> Geometry <==

    Molecular point group: c2v
    Full point group: C_inf_v

    Geometry (in Angstrom), charge = 0, multiplicity = 2:

       Center              X                  Y                   Z               Mass       
    ------------   -----------------  -----------------  -----------------  -----------------
         O            0.000000000000     0.000000000000    -0.056323515062    15.994914619570
         H            0.000000000000     0.000000000000     0.893895056859     1.007825032230

  Running in c2v symmetry.

  Rotational constants: A = ************  B =     19.69252  C =     19.69252 [cm^-1]
  Rotational constants: A = ************  B = 590366.91109  C = 590366.91109 [MHz]
  Nuclear repulsion =    4.455204108254278

  Charge       = 0
  Multiplicity = 2
  Electrons    = 9
  Nalpha       = 5
  Nbeta        = 4

  ==> Algorithm <==

  SCF Algorithm Type is PK.
  DIIS enabled.
  MOM disabled.
  Fractional occupation disabled.
  Guess Type is READ.
  Energy threshold   = 1.00e-10
  Density threshold  = 1.00e-08
  Integral threshold = 0.00e+00

  ==> Primary Basis <==

  Basis Set: AUG-CC-PV5Z
    Blend: AUG-CC-PV5Z
    Number of shells: 47
    Number of basis function: 207
    Number of Cartesian functions: 287
    Spherical Harmonics?: true
    Max angular momentum: 5

   => Loading Basis Set <=

    Name: AUG-CC-PV5Z
    Role: ORBITAL
    Keyword: BASIS
    atoms 1 entry O          line   541 file /apps/gb/PSI4/1.4.0/share/psi4/basis/aug-cc-pv5z.gbs 
    atoms 2 entry H          line    42 file /apps/gb/PSI4/1.4.0/share/psi4/basis/aug-cc-pv5z.gbs 

  Reading orbitals from file 180, no projection.

  ==> Pre-Iterations <==

   -------------------------------------------------------
    Irrep   Nso     Nmo     Nalpha   Nbeta   Ndocc  Nsocc
   -------------------------------------------------------
     A1        77      77       0       0       0       0
     A2        30      30       0       0       0       0
     B1        50      50       0       0       0       0
     B2        50      50       0       0       0       0
   -------------------------------------------------------
    Total     207     207       5       4       4       1
   -------------------------------------------------------

  ==> Integral Setup <==

  Using in-core PK algorithm.
   Calculation information:
      Number of atoms:                   2
      Number of AO shells:              47
      Number of primitives:             71
      Number of atomic orbitals:       287
      Number of basis functions:       207

      Integral cutoff                 1.00e-12
      Number of threads:                 1

  Performing in-core PK
  Using 463476312 doubles for integral storage.
  We computed 636756 shell quartets total.
  Whereas there are 636756 unique shell quartets.

  ==> DiskJK: Disk-Based J/K Matrices <==

    J tasked:                  Yes
    K tasked:                  Yes
    wK tasked:                  No
    Memory [MiB]:             7152
    Schwarz Cutoff:          1E-12

    OpenMP threads:              1

  Minimum eigenvalue in the overlap matrix is 1.7661581067E-05.
  Using Symmetric Orthogonalization.

  SCF Guess: Orbitals guess was supplied from a previous computation.

  ==> Iterations <==

                        Total Energy        Delta E     RMS |[F,P]|

   @UHF iter   0:   -75.42827488365657   -7.54283e+01   1.33591e-07 
   @UHF iter   1:   -75.42827190373316    2.97992e-06   1.72818e-08 DIIS
   @UHF iter   2:   -75.42827190373487   -1.70530e-12   4.28693e-09 DIIS
  Energy and wave function converged.


  ==> Post-Iterations <==

   @Spin Contamination Metric:   6.911792757E-03
   @S^2 Expected:                7.500000000E-01
   @S^2 Observed:                7.569117928E-01
   @S   Expected:                5.000000000E-01
   @S   Observed:                5.000000000E-01

    Orbital Energies [Eh]
    ---------------------

    Alpha Occupied:                                                       

       1A1   -20.636182     2A1    -1.394872     3A1    -0.688433  
       1B1    -0.659685     1B2    -0.562597  

    Alpha Virtual:                                                        

       4A1     0.024188     5A1     0.088839     2B1     0.103419  
       2B2     0.108782     6A1     0.138094     3B1     0.179733  
       7A1     0.182562     3B2     0.183046     8A1     0.287964  
       9A1     0.399272     1A2     0.399963    10A1     0.424845  
       4B1     0.453747     4B2     0.469219     5B1     0.474445  
       5B2     0.484557    11A1     0.487867    12A1     0.514002  
       2A2     0.527626    13A1     0.527937     6B1     0.547319  
       6B2     0.557310    14A1     0.666379     7B1     0.972618  
       7B2     0.975053     8B1     0.975993     8B2     0.990739  
      15A1     0.995917    16A1     1.080810     9B1     1.128272  
      17A1     1.138514     9B2     1.140736     3A2     1.168096  
      18A1     1.170949     4A2     1.208880    19A1     1.210225  
      10B1     1.245310    20A1     1.249835    10B2     1.254186  
      11B1     1.278668    11B2     1.278755     5A2     1.326231  
      21A1     1.326551    22A1     1.402138    12B1     1.472998  
      12B2     1.502818    23A1     1.719357    13B1     1.863925  
      13B2     1.902946    24A1     2.206336     6A2     2.300269  
      25A1     2.301261    14B1     2.313516    14B2     2.328684  
       7A2     2.568367    26A1     2.568367    27A1     2.615552  
      15B1     2.647360    15B2     2.670649    28A1     2.720925  
      16B1     2.834946    16B2     2.834998    17B1     2.912963  
      17B2     2.916914    29A1     2.917864    18B1     2.926628  
       8A2     2.932300    30A1     2.944251    18B2     2.947288  
       9A2     3.041354    31A1     3.041512    32A1     3.128481  
      10A2     3.128481    33A1     3.141909    11A2     3.186561  
      34A1     3.186636    19B1     3.287147    19B2     3.308122  
      20B1     3.324286    20B2     3.324339    35A1     3.451654  
      21B1     3.555876    21B2     3.579838    36A1     3.652879  
      12A2     3.830852    37A1     3.832568    38A1     4.254794  
      22B1     4.547317    22B2     4.584221    23B1     4.689533  
      23B2     4.689590    24B1     4.750947    24B2     4.802745  
      39A1     5.074611    13A2     5.428153    40A1     5.428336  
      41A1     5.631782    25B1     5.801324    25B2     5.826432  
      14A2     5.916043    42A1     5.916265    26B1     6.164033  
      26B2     6.184832    27B1     6.184832    27B2     6.186289  
      43A1     6.281221    15A2     6.467083    44A1     6.467083  
      28B1     6.658242    28B2     6.705132    45A1     6.909932  
      46A1     7.085939    16A2     7.086022    47A1     7.105117  
      29B1     7.157281    29B2     7.160587    30B1     7.183970  
      17A2     7.188909    48A1     7.194580    30B2     7.212952  
      31B1     7.237256    31B2     7.238849    32B1     7.599930  
      32B2     7.599956    49A1     7.723291    18A2     7.725033  
      50A1     7.810745    51A1     7.904351    19A2     7.904736  
      33B1     8.531010    33B2     8.570119    52A1     8.591700  
      53A1     8.836539    34B1     9.153469    34B2     9.198822  
      20A2     9.440343    54A1     9.440842    55A1    10.382367  
      35B1    10.456932    35B2    10.503671    56A1    12.809343  
      36B1    12.981256    36B2    12.981256    21A2    13.143369  
      57A1    13.143369    58A1    13.524314    22A2    13.524452  
      37B1    13.942116    37B2    13.942119    59A1    14.102621  
      23A2    14.134481    60A1    14.134485    38B1    14.232021  
      38B2    14.249756    39B1    14.497430    39B2    14.513990  
      61A1    14.751968    62A1    15.621097    24A2    15.752157  
      63A1    15.753908    40B1    15.985653    40B2    16.025955  
      41B1    16.210732    41B2    16.210732    25A2    16.354735  
      64A1    16.354735    42B1    16.708251    42B2    16.759005  
      65A1    16.875703    43B1    16.909210    43B2    16.909218  
      66A1    17.905668    26A2    17.913250    44B1    17.924290  
      44B2    17.958200    67A1    18.003877    45B1    18.169301  
      45B2    18.198175    68A1    18.700014    69A1    19.068612  
      27A2    19.068613    46B1    19.175568    46B2    19.175576  
      47B1    19.223155    47B2    19.223166    70A1    19.594715  
      28A2    19.605805    71A1    19.677421    29A2    20.081906  
      72A1    20.083051    48B1    20.581033    48B2    20.635541  
      73A1    21.224933    30A2    22.422270    74A1    22.422844  
      49B1    23.180995    49B2    23.232021    50B1    24.220213  
      50B2    24.265953    75A1    26.303867    76A1    26.376647  
      77A1    65.074610  

    Beta Occupied:                                                        

       1A1   -20.596669     2A1    -1.237731     3A1    -0.644160  
       1B2    -0.514742  

    Beta Virtual:                                                         

       4A1     0.025022     1B1     0.055710     5A1     0.089715  
       2B2     0.109822     6A1     0.141135     2B1     0.147210  
       3B2     0.183007     7A1     0.184275     3B1     0.191185  
       8A1     0.292748     1A2     0.405111     9A1     0.405160  
      10A1     0.427859     4B2     0.472698     4B1     0.479826  
       5B2     0.484474    11A1     0.490902     5B1     0.508065  
      12A1     0.519291     2A2     0.527977    13A1     0.528233  
       6B2     0.558853     6B1     0.577232    14A1     0.676132  
       7B2     0.978890     7B1     0.978907     8B2     0.991620  
      15A1     1.002847     8B1     1.005453    16A1     1.086748  
       9B1     1.132513     9B2     1.140126    17A1     1.147668  
       3A2     1.174327    18A1     1.174917     4A2     1.230879  
      19A1     1.231032    10B1     1.253394    10B2     1.254543  
      20A1     1.256120    11B1     1.279243    11B2     1.279247  
       5A2     1.340133    21A1     1.340636    22A1     1.412775  
      12B2     1.508492    12B1     1.528469    23A1     1.727669  
      13B2     1.913729    13B1     1.942397    24A1     2.213516  
       6A2     2.308182    25A1     2.308452    14B1     2.319513  
      14B2     2.327178    26A1     2.574713     7A2     2.574713  
      27A1     2.627313    15B1     2.668621    15B2     2.673119  
      28A1     2.730092    16B2     2.855606    16B1     2.855608  
      17B1     2.923808    17B2     2.924492    29A1     2.932505  
       8A2     2.939179    18B1     2.940598    18B2     2.948324  
      30A1     2.948386     9A2     3.055706    31A1     3.055845  
      32A1     3.130485    10A2     3.130485    33A1     3.151270  
      11A2     3.241537    34A1     3.242540    19B2     3.311833  
      19B1     3.313421    20B2     3.325639    20B1     3.325652  
      35A1     3.465946    21B1     3.568285    21B2     3.581744  
      36A1     3.663609    12A2     3.846407    37A1     3.846714  
      38A1     4.263616    22B1     4.588367    22B2     4.591771  
      23B1     4.693134    23B2     4.693138    24B2     4.816414  
      24B1     4.829359    39A1     5.093290    40A1     5.433841  
      13A2     5.433863    41A1     5.638809    25B1     5.818503  
      25B2     5.828555    14A2     5.924482    42A1     5.924509  
      26B1     6.172708    26B2     6.186629    27B1     6.196419  
      27B2     6.196419    43A1     6.290421    44A1     6.476990  
      15A2     6.476990    28B1     6.702997    28B2     6.714700  
      45A1     6.933939    46A1     7.110460    16A2     7.110574  
      47A1     7.114482    29B1     7.175689    29B2     7.178575  
      30B1     7.195167    17A2     7.199614    48A1     7.201926  
      30B2     7.216006    31B1     7.260975    31B2     7.261126  
      32B1     7.631598    32B2     7.631600    49A1     7.753972  
      18A2     7.754964    50A1     7.817989    19A2     7.947721  
      51A1     7.948033    33B1     8.552311    33B2     8.574367  
      52A1     8.607495    53A1     8.853011    34B1     9.189549  
      34B2     9.207502    20A2     9.478744    54A1     9.478831  
      55A1    10.392731    35B1    10.500770    35B2    10.513461  
      56A1    12.838906    36B1    12.981827    36B2    12.981828  
      57A1    13.143745    21A2    13.143745    58A1    13.527515  
      22A2    13.527598    37B1    13.944144    37B2    13.944145  
      59A1    14.108333    60A1    14.133356    23A2    14.133357  
      38B1    14.236976    38B2    14.249646    39B1    14.502283  
      39B2    14.514285    61A1    14.755598    62A1    15.626978  
      24A2    15.758282    63A1    15.759151    40B1    16.020020  
      40B2    16.033530    41B1    16.235925    41B2    16.235925  
      25A2    16.375388    64A1    16.375388    42B1    16.755052  
      42B2    16.769829    65A1    16.878710    43B1    16.925517  
      43B2    16.925520    66A1    17.924796    26A2    17.928509  
      44B1    17.935811    44B2    17.960379    67A1    18.011004  
      45B1    18.182913    45B2    18.200988    68A1    18.722808  
      69A1    19.107002    27A2    19.107002    46B1    19.209263  
      46B2    19.209263    47B1    19.267808    47B2    19.267810  
      70A1    19.625696    28A2    19.631665    71A1    19.683728  
      29A2    20.109856    72A1    20.110242    48B1    20.614921  
      48B2    20.645570    73A1    21.241260    30A2    22.468106  
      74A1    22.468208    49B1    23.213921    49B2    23.240660  
      50B1    24.250385    50B2    24.274315    75A1    26.311323  
      76A1    26.387557    77A1    65.089985  

    Final Occupation by Irrep:
             A1    A2    B1    B2 
    DOCC [     3,    0,    0,    1 ]
    SOCC [     0,    0,    1,    0 ]

  @UHF Final Energy:   -75.42827190373487

   => Energetics <=

    Nuclear Repulsion Energy =              4.4552041082542777
    One-Electron Energy =                -112.8318802620364352
    Two-Electron Energy =                  32.9484042500472896
    Total Energy =                        -75.4282719037348670

  UHF NO Occupations:
  HONO-2 :    2 A1 1.9992849
  HONO-1 :    3 A1 1.9978783
  HONO-0 :    1 B1 1.0000000
  LUNO+0 :    4 A1 0.0021217
  LUNO+1 :    5 A1 0.0007151
  LUNO+2 :    2 B2 0.0006204
  LUNO+3 :    6 A1 0.0000013


Computation Completed


Properties will be evaluated at   0.000000,   0.000000,   0.000000 [a0]

Properties computed using the SCF density matrix

  Nuclear Dipole Moment: [e a0]
     X:     0.0000      Y:     0.0000      Z:     0.8377

  Electronic Dipole Moment: [e a0]
     X:     0.0000      Y:     0.0000      Z:    -0.1525

  Dipole Moment: [e a0]
     X:     0.0000      Y:     0.0000      Z:     0.6852     Total:     0.6852

  Dipole Moment: [D]
     X:     0.0000      Y:     0.0000      Z:     1.7417     Total:     1.7417


*** tstop() called on c4-20.compute.lan at Tue Feb 23 13:33:49 2021
Module time:
	user time   =      26.42 seconds =       0.44 minutes
	system time =       1.81 seconds =       0.03 minutes
	total time  =         28 seconds =       0.47 minutes
Total time:
	user time   =     694.63 seconds =      11.58 minutes
	system time =       8.85 seconds =       0.15 minutes
	total time  =        705 seconds =      11.75 minutes

*** tstart() called on c4-20.compute.lan
*** at Tue Feb 23 13:33:49 2021


         ------------------------------------------------------------
                                   SCF GRAD                          
                          Rob Parrish, Justin Turney,                
                       Andy Simmonett, and Alex Sokolov              
         ------------------------------------------------------------

  ==> Geometry <==

    Molecular point group: c2v
    Full point group: C_inf_v

    Geometry (in Angstrom), charge = 0, multiplicity = 2:

       Center              X                  Y                   Z               Mass       
    ------------   -----------------  -----------------  -----------------  -----------------
         O            0.000000000000     0.000000000000    -0.056323515062    15.994914619570
         H            0.000000000000     0.000000000000     0.893895056859     1.007825032230

  Nuclear repulsion =    4.455204108254278

  ==> Basis Set <==

  Basis Set: AUG-CC-PV5Z
    Blend: AUG-CC-PV5Z
    Number of shells: 47
    Number of basis function: 207
    Number of Cartesian functions: 287
    Spherical Harmonics?: true
    Max angular momentum: 5

  ==> DirectJKGrad: Integral-Direct SCF Gradients <==

    Gradient:                    1
    J tasked:                  Yes
    K tasked:                  Yes
    wK tasked:                  No
    Integrals threads:           1
    Schwarz Cutoff:          0E+00


  -Total Gradient:
     Atom            X                  Y                   Z
    ------   -----------------  -----------------  -----------------
       1        0.000000000000     0.000000000000     0.000000335140
       2        0.000000000000     0.000000000000    -0.000000335140


*** tstop() called on c4-20.compute.lan at Tue Feb 23 13:37:05 2021
Module time:
	user time   =     195.13 seconds =       3.25 minutes
	system time =       0.21 seconds =       0.00 minutes
	total time  =        196 seconds =       3.27 minutes
Total time:
	user time   =     889.77 seconds =      14.83 minutes
	system time =       9.06 seconds =       0.15 minutes
	total time  =        901 seconds =      15.02 minutes

			-----------------------------------------
			 OPTKING 2.0: for geometry optimizations 
			  - R.A. King,  Bethel University        
			-----------------------------------------

	Previous internal coordinate definitions found.
	---Fragment 1 Geometry and Gradient---
	 O           0.0000000000        0.0000000000       -0.1064360179
	 H           0.0000000000        0.0000000000        1.6892168424
	             0.0000000000        0.0000000000        0.0000003351
	             0.0000000000        0.0000000000       -0.0000003351

	---Fragment 1 Intrafragment Coordinates---
	 - Coordinate -           - BOHR/RAD -       - ANG/DEG -
	 R(1,2)           =         1.795653	       0.950219

	Current energy   :       -75.4282719037

	Energy change for the previous step:
		Projected    :        -0.0000000000
		Actual       :        -0.0000000001

	Performing BFGS update.
	Previous computed or guess Hessian on step 1.
	Denominators (dg)(dq) or (dq)(dq) are very small.
	 Skipping Hessian update for step 3.
	Denominators (dg)(dq) or (dq)(dq) are very small.
	 Skipping Hessian update for step 2.
	Steps to be used in Hessian update: 1
	Taking RFO optimization step.
	Going to follow RFO solution 1.
	Using RFO vector 1.
	Norm of target step-size    0.00000
	Projected energy change by RFO approximation:        -0.0000000000

	Back-transformation to cartesian coordinates...
	Successfully converged to displaced geometry.

	--- Internal Coordinate Step in ANG or DEG, aJ/ANG or AJ/DEG ---
	 ---------------------------------------------------------------------------
	   Coordinate                Previous        Force       Change         New 
	   ----------                --------       ------       ------       ------
	    1 R(1,2)          =      0.950219     0.000003     0.000000     0.950219
	 ---------------------------------------------------------------------------
	Successfully symmetrized geometry.

  ==> Convergence Check <==

  Measures of convergence in internal coordinates in au.
  Criteria marked as inactive (o), active & met (*), and active & unmet ( ).
  ---------------------------------------------------------------------------------------------
   Step     Total Energy     Delta E     MAX Force     RMS Force      MAX Disp      RMS Disp   
  ---------------------------------------------------------------------------------------------
    Convergence Criteria             o    2.00e-06 *    1.00e-06 *    6.00e-06 *    4.00e-06 *
  ---------------------------------------------------------------------------------------------
      4     -75.42827190   -5.68e-11 o    3.35e-07 *    3.35e-07 *    5.91e-07 *    5.91e-07 *  ~
  ---------------------------------------------------------------------------------------------


  **** Optimization is complete! (in 4 steps) ****

  ==> Optimization Summary <==

  Measures of convergence in internal coordinates in au.
  --------------------------------------------------------------------------------------------------------------- ~
   Step         Total Energy             Delta E       MAX Force       RMS Force        MAX Disp        RMS Disp  ~
  --------------------------------------------------------------------------------------------------------------- ~
      1     -75.428173956536    -75.428173956536      0.01048165      0.01048165      0.01888817      0.01888817  ~
      2     -75.428271855772     -0.000097899237      0.00023724      0.00023724      0.00041806      0.00041806  ~
      3     -75.428271903678     -0.000000047906      0.00000800      0.00000800      0.00001411      0.00001411  ~
      4     -75.428271903735     -0.000000000057      0.00000034      0.00000034      0.00000059      0.00000059  ~
  --------------------------------------------------------------------------------------------------------------- ~

	Writing optimization data to binary file.
	Final energy is    -75.4282719037349
	Final (previous) structure:
	Cartesian Geometry (in Angstrom)
	    O     0.0000000000   0.0000000000  -0.0563235148
	    H     0.0000000000   0.0000000000   0.8938950533
	Saving final (previous) structure.
			--------------------------
			 OPTKING Finished Execution 
			--------------------------

    Final optimized geometry and variables:
    Molecular point group: c2v
    Full point group: C_inf_v

    Geometry (in Angstrom), charge = 0, multiplicity = 2:

    O       
    H             1          R1

    R1        =    0.9502185719

	Removing binary optimization data file.
	Cleaning optimization helper files.

    Psi4 stopped on: Tuesday, 23 February 2021 01:37PM
    Psi4 wall time for execution: 0:15:01.17

*** Psi4 exiting successfully. Buy a developer a beer!
