
    -----------------------------------------------------------------------
          Psi4: An Open-Source Ab Initio Electronic Structure Package
                               Psi4 1.4a2.dev191 

                         Git: Rev {master} 0ab5346 


    R. M. Parrish, L. A. Burns, D. G. A. Smith, A. C. Simmonett,
    A. E. DePrince III, E. G. Hohenstein, U. Bozkaya, A. Yu. Sokolov,
    R. Di Remigio, R. M. Richard, J. F. Gonthier, A. M. James,
    H. R. McAlexander, A. Kumar, M. Saitow, X. Wang, B. P. Pritchard,
    P. Verma, H. F. Schaefer III, K. Patkowski, R. A. King, E. F. Valeev,
    F. A. Evangelista, J. M. Turney, T. D. Crawford, and C. D. Sherrill,
    J. Chem. Theory Comput. 13(7) pp 3185--3197 (2017).
    (doi: 10.1021/acs.jctc.7b00174)


                         Additional Contributions by
    P. Kraus, H. Kruse, M. H. Lechner, M. C. Schieber, R. A. Shaw,
    A. Alenaizan, R. Galvelis, Z. L. Glick, S. Lehtola, and J. P. Misiewicz

    -----------------------------------------------------------------------


    Psi4 started on: Tuesday, 23 February 2021 01:26PM

    Process ID: 67073
    Host:       c4-9.compute.lan
    PSIDATADIR: /apps/gb/PSI4/1.4.0/share/psi4
    Memory:     500.0 MiB
    Threads:    1
    
  ==> Input File <==

--------------------------------------------------------------------------
memory 10 GB
molecule {
0 2
O
H 1 R1
R1 = 0.9478992047
}
set {
basis aug-cc-pv5z
e_convergence 10
g_convergence gau_verytight
reference uhf
scf_type pk
mp2_type conv
}

optimize("mp2")

--------------------------------------------------------------------------

  Memory set to   9.313 GiB by Python driver.
gradient() will perform analytic gradient computation.

*** tstart() called on c4-9.compute.lan
*** at Tue Feb 23 13:26:33 2021

   => Loading Basis Set <=

    Name: AUG-CC-PV5Z
    Role: ORBITAL
    Keyword: BASIS
    atoms 1 entry O          line   541 file /apps/gb/PSI4/1.4.0/share/psi4/basis/aug-cc-pv5z.gbs 
    atoms 2 entry H          line    42 file /apps/gb/PSI4/1.4.0/share/psi4/basis/aug-cc-pv5z.gbs 


         ---------------------------------------------------------
                                   SCF
               by Justin Turney, Rob Parrish, Andy Simmonett
                          and Daniel G. A. Smith
                              UHF Reference
                        1 Threads,   9536 MiB Core
         ---------------------------------------------------------

  ==> Geometry <==

    Molecular point group: c2v
    Full point group: C_inf_v

    Geometry (in Angstrom), charge = 0, multiplicity = 2:

       Center              X                  Y                   Z               Mass       
    ------------   -----------------  -----------------  -----------------  -----------------
         O            0.000000000000     0.000000000000    -0.056186036256    15.994914619570
         H            0.000000000000     0.000000000000     0.891713168444     1.007825032230

  Running in c2v symmetry.

  Rotational constants: A = ************  B =     19.78901  C =     19.78901 [cm^-1]
  Rotational constants: A = ************  B = 593259.52428  C = 593259.52428 [MHz]
  Nuclear repulsion =    4.466105324668810

  Charge       = 0
  Multiplicity = 2
  Electrons    = 9
  Nalpha       = 5
  Nbeta        = 4

  ==> Algorithm <==

  SCF Algorithm Type is PK.
  DIIS enabled.
  MOM disabled.
  Fractional occupation disabled.
  Guess Type is SAD.
  Energy threshold   = 1.00e-10
  Density threshold  = 1.00e-10
  Integral threshold = 0.00e+00

  ==> Primary Basis <==

  Basis Set: AUG-CC-PV5Z
    Blend: AUG-CC-PV5Z
    Number of shells: 47
    Number of basis function: 207
    Number of Cartesian functions: 287
    Spherical Harmonics?: true
    Max angular momentum: 5

  ==> Pre-Iterations <==

   -------------------------------------------------------
    Irrep   Nso     Nmo     Nalpha   Nbeta   Ndocc  Nsocc
   -------------------------------------------------------
     A1        77      77       0       0       0       0
     A2        30      30       0       0       0       0
     B1        50      50       0       0       0       0
     B2        50      50       0       0       0       0
   -------------------------------------------------------
    Total     207     207       5       4       4       1
   -------------------------------------------------------

  ==> Integral Setup <==

  Using in-core PK algorithm.
   Calculation information:
      Number of atoms:                   2
      Number of AO shells:              47
      Number of primitives:             71
      Number of atomic orbitals:       287
      Number of basis functions:       207

      Integral cutoff                 1.00e-12
      Number of threads:                 1

  Performing in-core PK
  Using 463476312 doubles for integral storage.
  We computed 636756 shell quartets total.
  Whereas there are 636756 unique shell quartets.

  ==> DiskJK: Disk-Based J/K Matrices <==

    J tasked:                  Yes
    K tasked:                  Yes
    wK tasked:                  No
    Memory [MiB]:             7152
    Schwarz Cutoff:          1E-12

    OpenMP threads:              1

  Minimum eigenvalue in the overlap matrix is 1.7546156464E-05.
  Using Symmetric Orthogonalization.

  SCF Guess: Superposition of Atomic Densities via on-the-fly atomic UHF.

  ==> Iterations <==

                        Total Energy        Delta E     RMS |[F,P]|

   @UHF iter SAD:   -74.66734640449775   -7.46673e+01   0.00000e+00 
   @UHF iter   1:   -75.40457396110338   -7.37228e-01   2.17622e-03 DIIS
   @UHF iter   2:   -75.42498154829281   -2.04076e-02   8.31977e-04 DIIS
   @UHF iter   3:   -75.42773077958657   -2.74923e-03   2.43148e-04 DIIS
   @UHF iter   4:   -75.42817172348313   -4.40944e-04   7.41707e-05 DIIS
   @UHF iter   5:   -75.42824372633780   -7.20029e-05   3.26299e-05 DIIS
   @UHF iter   6:   -75.42826291349428   -1.91872e-05   1.16058e-05 DIIS
   @UHF iter   7:   -75.42826588877719   -2.97528e-06   3.85038e-06 DIIS
   @UHF iter   8:   -75.42826622945253   -3.40675e-07   8.26475e-07 DIIS
   @UHF iter   9:   -75.42826624094189   -1.14894e-08   2.73381e-07 DIIS
   @UHF iter  10:   -75.42826624232183   -1.37993e-09   4.53848e-08 DIIS
   @UHF iter  11:   -75.42826624235656   -3.47313e-11   5.55088e-09 DIIS
   @UHF iter  12:   -75.42826624235693   -3.69482e-13   1.24009e-09 DIIS
   @UHF iter  13:   -75.42826624235693    0.00000e+00   2.81627e-10 DIIS
   @UHF iter  14:   -75.42826624235690    2.84217e-14   6.25231e-11 DIIS
  Energy and wave function converged.


  ==> Post-Iterations <==

   @Spin Contamination Metric:   6.884851174E-03
   @S^2 Expected:                7.500000000E-01
   @S^2 Observed:                7.568848512E-01
   @S   Expected:                5.000000000E-01
   @S   Observed:                5.000000000E-01

    Orbital Energies [Eh]
    ---------------------

    Alpha Occupied:                                                       

       1A1   -20.635987     2A1    -1.395592     3A1    -0.689104  
       1B2    -0.659782     1B1    -0.562701  

    Alpha Virtual:                                                        

       4A1     0.024207     5A1     0.088839     2B2     0.103391  
       2B1     0.108749     6A1     0.138176     3B2     0.179799  
       7A1     0.182579     3B1     0.183117     8A1     0.288192  
       9A1     0.399245     1A2     0.399925    10A1     0.425244  
       4B2     0.453843     4B1     0.469363     5B2     0.474404  
       5B1     0.484464    11A1     0.487903    12A1     0.513862  
       2A2     0.527480    13A1     0.527793     6B2     0.547098  
       6B1     0.557079    14A1     0.667232     7B2     0.972736  
       7B1     0.975070     8B2     0.976067     8B1     0.990951  
      15A1     0.995634    16A1     1.081128     9B2     1.128536  
      17A1     1.138375     9B1     1.140988     3A2     1.168217  
      18A1     1.171056     4A2     1.209157    19A1     1.210494  
      10B2     1.245443    20A1     1.249484    10B1     1.254322  
      11B2     1.278549    11B1     1.278637     5A2     1.325577  
      21A1     1.325898    22A1     1.403824    12B2     1.472270  
      12B1     1.502084    23A1     1.720487    13B2     1.864826  
      13B1     1.903851    24A1     2.205287     6A2     2.302761  
      25A1     2.303727    14B2     2.314512    14B1     2.329733  
       7A2     2.568420    26A1     2.568420    27A1     2.614625  
      15B2     2.649170    15B1     2.672506    28A1     2.722475  
      16B2     2.835435    16B1     2.835488    17B2     2.912958  
      17B1     2.917178    29A1     2.917867    18B2     2.926477  
       8A2     2.932165    30A1     2.944279    18B1     2.946855  
       9A2     3.039763    31A1     3.039934    32A1     3.129168  
      10A2     3.129168    33A1     3.144006    11A2     3.187534  
      34A1     3.187616    19B2     3.284312    19B1     3.305171  
      20B2     3.322292    20B1     3.322342    35A1     3.454439  
      21B2     3.558564    21B1     3.582590    36A1     3.654646  
      12A2     3.832635    37A1     3.834352    38A1     4.250714  
      22B2     4.546547    22B1     4.583921    23B2     4.694832  
      23B1     4.694885    24B2     4.755724    24B1     4.807168  
      39A1     5.080055    13A2     5.431758    40A1     5.431938  
      41A1     5.631394    25B2     5.801518    25B1     5.826457  
      14A2     5.916513    42A1     5.916740    26B2     6.166516  
      26B1     6.184722    27B2     6.184722    27B1     6.188868  
      43A1     6.289046    15A2     6.468814    44A1     6.468814  
      28B2     6.658257    28B1     6.705342    45A1     6.914785  
      46A1     7.085922    16A2     7.086000    47A1     7.105800  
      29B2     7.157995    29B1     7.161557    30B2     7.184447  
      17A2     7.188925    48A1     7.194602    30B1     7.213308  
      31B2     7.238303    31B1     7.239718    32B2     7.602118  
      32B1     7.602143    49A1     7.725706    18A2     7.727527  
      50A1     7.809246    51A1     7.904478    19A2     7.904930  
      33B2     8.538321    33B1     8.577465    52A1     8.586663  
      53A1     8.839921    34B2     9.162721    34B1     9.208122  
      20A2     9.449805    54A1     9.450307    55A1    10.398063  
      35B2    10.458917    35B1    10.505572    56A1    12.812248  
      36B2    12.982906    36B1    12.982906    21A2    13.144590  
      57A1    13.144590    58A1    13.528458    22A2    13.528595  
      37B2    13.951335    37B1    13.951338    59A1    14.107035  
      23A2    14.135507    60A1    14.135514    38B2    14.238047  
      38B1    14.255536    39B2    14.502819    39B1    14.519769  
      61A1    14.765049    62A1    15.632581    24A2    15.768204  
      63A1    15.769915    40B2    15.991714    40B1    16.031743  
      41B2    16.210631    41B1    16.210631    25A2    16.355895  
      64A1    16.355895    42B2    16.699499    42B1    16.750694  
      65A1    16.871310    43B2    16.916600    43B1    16.916608  
      66A1    17.910007    26A2    17.918831    44B2    17.947401  
      44B1    17.981636    67A1    17.997524    45B2    18.169873  
      45B1    18.198401    68A1    18.718628    69A1    19.068615  
      27A2    19.068616    46B2    19.175306    46B1    19.175314  
      47B2    19.223941    47B1    19.223952    70A1    19.601417  
      28A2    19.610412    71A1    19.697852    29A2    20.099373  
      72A1    20.100534    48B2    20.598501    48B1    20.652989  
      73A1    21.249636    30A2    22.425804    74A1    22.426389  
      49B2    23.176012    49B1    23.227110    50B2    24.263728  
      50B1    24.309358    75A1    26.349032    76A1    26.398301  
      77A1    65.083261  

    Beta Occupied:                                                        

       1A1   -20.596494     2A1    -1.238609     3A1    -0.644781  
       1B1    -0.514867  

    Beta Virtual:                                                         

       4A1     0.025038     1B2     0.055661     5A1     0.089707  
       2B1     0.109788     6A1     0.141210     2B2     0.147113  
       3B1     0.183082     7A1     0.184286     3B2     0.191280  
       8A1     0.292945     1A2     0.405073     9A1     0.405123  
      10A1     0.428291     4B1     0.472893     4B2     0.479912  
       5B1     0.484336    11A1     0.490931     5B2     0.507994  
      12A1     0.519144     2A2     0.527836    13A1     0.528093  
       6B1     0.558618     6B2     0.576985    14A1     0.676999  
       7B1     0.978911     7B2     0.978927     8B1     0.991863  
      15A1     1.002605     8B2     1.005763    16A1     1.087045  
       9B2     1.132747     9B1     1.140372    17A1     1.147554  
       3A2     1.174504    18A1     1.175090     4A2     1.231062  
      19A1     1.231214    10B2     1.253501    10B1     1.254684  
      20A1     1.255713    11B2     1.279125    11B1     1.279129  
       5A2     1.339537    21A1     1.340041    22A1     1.414521  
      12B1     1.507743    12B2     1.527725    23A1     1.728794  
      13B1     1.914635    13B2     1.943306    24A1     2.212457  
       6A2     2.310685    25A1     2.310946    14B2     2.320566  
      14B1     2.328257    26A1     2.574771     7A2     2.574771  
      27A1     2.626403    15B2     2.670539    15B1     2.674993  
      28A1     2.731702    16B1     2.856198    16B2     2.856200  
      17B2     2.923920    17B1     2.924655    29A1     2.932396  
       8A2     2.939046    18B2     2.940189    18B1     2.947888  
      30A1     2.948373     9A2     3.054195    31A1     3.054336  
      32A1     3.131177    10A2     3.131177    33A1     3.153383  
      11A2     3.242505    34A1     3.243510    19B1     3.308841  
      19B2     3.310377    20B1     3.323636    20B2     3.323647  
      35A1     3.468820    21B2     3.571019    21B1     3.584502  
      36A1     3.665327    12A2     3.848080    37A1     3.848390  
      38A1     4.259539    22B2     4.588543    22B1     4.591629  
      23B2     4.698458    23B1     4.698461    24B1     4.820703  
      24B2     4.833385    39A1     5.098849    40A1     5.437448  
      13A2     5.437470    41A1     5.638367    25B2     5.818517  
      25B1     5.828550    14A2     5.925091    42A1     5.925121  
      26B2     6.175269    26B1     6.189221    27B2     6.196310  
      27B1     6.196310    43A1     6.298151    44A1     6.478727  
      15A2     6.478727    28B2     6.703111    28B1     6.714932  
      45A1     6.938929    46A1     7.110449    16A2     7.110546  
      47A1     7.115101    29B2     7.176221    29B1     7.179337  
      30B2     7.195467    17A2     7.199636    48A1     7.201955  
      30B1     7.216102    31B2     7.262571    31B1     7.262699  
      32B2     7.633522    32B1     7.633524    49A1     7.756192  
      18A2     7.757258    50A1     7.816447    19A2     7.948104  
      51A1     7.948381    33B2     8.559620    33B1     8.581710  
      52A1     8.602042    53A1     8.856733    34B2     9.198921  
      34B1     9.216824    20A2     9.488128    54A1     9.488215  
      55A1    10.408407    35B2    10.502602    35B1    10.515309  
      56A1    12.841851    36B2    12.983513    36B1    12.983513  
      57A1    13.144992    21A2    13.144992    58A1    13.531687  
      22A2    13.531770    37B2    13.953401    37B1    13.953403  
      59A1    14.112678    23A2    14.134400    60A1    14.134402  
      38B2    14.242929    38B1    14.255412    39B2    14.507831  
      39B1    14.520106    61A1    14.768801    62A1    15.638475  
      24A2    15.774382    63A1    15.775232    40B2    16.025510  
      40B1    16.039191    41B2    16.235821    41B1    16.235821  
      25A2    16.376537    64A1    16.376537    42B2    16.746908  
      42B1    16.761660    65A1    16.874264    43B2    16.932881  
      43B1    16.932884    66A1    17.929740    26A2    17.934139  
      44B2    17.959077    44B1    17.983866    67A1    18.004194  
      45B2    18.183306    45B1    18.201156    68A1    18.741338  
      69A1    19.106995    27A2    19.106995    46B2    19.209033  
      46B1    19.209034    47B2    19.268537    47B1    19.268539  
      70A1    19.631910    28A2    19.636412    71A1    19.704822  
      29A2    20.127070    72A1    20.127465    48B2    20.632431  
      48B1    20.663013    73A1    21.265895    30A2    22.471613  
      74A1    22.471717    49B2    23.209027    49B1    23.235762  
      50B2    24.293661    50B1    24.317650    75A1    26.356029  
      76A1    26.409596    77A1    65.098627  

    Final Occupation by Irrep:
             A1    A2    B1    B2 
    DOCC [     3,    0,    1,    0 ]
    SOCC [     0,    0,    0,    1 ]

  @UHF Final Energy:   -75.42826624235690

   => Energetics <=

    Nuclear Repulsion Energy =              4.4661053246688098
    One-Electron Energy =                -112.8508254126096375
    Two-Electron Energy =                  32.9564538455839298
    Total Energy =                        -75.4282662423568979

  UHF NO Occupations:
  HONO-2 :    2 A1 1.9992943
  HONO-1 :    3 A1 1.9978812
  HONO-0 :    1 B2 1.0000000
  LUNO+0 :    4 A1 0.0021188
  LUNO+1 :    5 A1 0.0007057
  LUNO+2 :    2 B1 0.0006193
  LUNO+3 :    6 A1 0.0000013


Computation Completed


Properties will be evaluated at   0.000000,   0.000000,   0.000000 [a0]

Properties computed using the SCF density matrix

  Nuclear Dipole Moment: [e a0]
     X:     0.0000      Y:     0.0000      Z:     0.8357

  Electronic Dipole Moment: [e a0]
     X:     0.0000      Y:     0.0000      Z:    -0.1512

  Dipole Moment: [e a0]
     X:     0.0000      Y:     0.0000      Z:     0.6845     Total:     0.6845

  Dipole Moment: [D]
     X:     0.0000      Y:     0.0000      Z:     1.7398     Total:     1.7398


*** tstop() called on c4-9.compute.lan at Tue Feb 23 13:27:25 2021
Module time:
	user time   =      45.88 seconds =       0.76 minutes
	system time =       6.09 seconds =       0.10 minutes
	total time  =         52 seconds =       0.87 minutes
Total time:
	user time   =      45.88 seconds =       0.76 minutes
	system time =       6.09 seconds =       0.10 minutes
	total time  =         52 seconds =       0.87 minutes
 MINTS: Wrapper to libmints.
   by Justin Turney

   Calculation information:
      Number of threads:                 1
      Number of atoms:                   2
      Number of AO shells:              47
      Number of SO shells:              47
      Number of primitives:             71
      Number of atomic orbitals:       287
      Number of basis functions:       207

      Number of irreps:                  4
      Integral cutoff                 0.00e+00
      Number of functions per irrep: [  77   30   50   50 ]

 OEINTS: Overlap, kinetic, potential, dipole, and quadrupole integrals
         stored in file 35.

      Computing two-electron integrals...done
      Computed 53502122 non-zero two-electron integrals.
        Stored in file 33.


*** tstart() called on c4-9.compute.lan
*** at Tue Feb 23 13:27:42 2021


 ============================================================================== 
 ============================================================================== 
 ============================================================================== 

                       MP2   
              Program Written by Ugur Bozkaya,
              Latest Revision June 25, 2014.

 ============================================================================== 
 ============================================================================== 
 ============================================================================== 

	RMS orbital gradient is changed to :     1.00e-07
	MAX orbital gradient is changed to :     1.00e-04
	MO spaces per irreps... 

	IRREP   FC   AOCC  BOCC  AVIR    BVIR  FV 
	==========================================
	  A1     0     3     3    74     74     0
	  A2     0     0     0    30     30     0
	  B1     0     1     1    49     49     0
	  B2     0     1     0    49     50     0
	==========================================

	Computing MP2 energy using SCF MOs (Canonical MP2)... 
	============================================================================== 
	Nuclear Repulsion Energy (a.u.)    :     4.46610532466881
	SCF Energy (a.u.)                  :   -75.42826624235690
	REF Energy (a.u.)                  :   -75.42826624235690
	Alpha-Alpha Contribution (a.u.)    :    -0.03800700437616
	Alpha-Beta Contribution (a.u.)     :    -0.20564800635084
	Beta-Beta Contribution (a.u.)      :    -0.01836797388147
	Scaled_SS Correlation Energy (a.u.):    -0.01879165941921
	Scaled_OS Correlation Energy (a.u.):    -0.24677760762100
	SCS-MP2 Total Energy (a.u.)        :   -75.69383550939710
	SOS-MP2 Total Energy (a.u.)        :   -75.42826624235690
	SCSN-MP2 Total Energy (a.u.)       :   -75.52748620409034
	SCS-MP2-VDW Total Energy (a.u.)    :   -75.71968317961479
	SOS-PI-MP2 Total Energy (a.u.)     :   -75.71617345124807
	MP2 Correlation Energy (a.u.)      :    -0.26202298460847
	MP2 Total Energy (a.u.)            :   -75.69028922696536
	============================================================================== 
	Analytic gradient computation is starting...
	Computing response density matrices...
	Computing off-diagonal blocks of GFM...
	Forming independent-pairs...
	Number of alpha independent-pairs:320
	Number of beta independent-pairs :271
	Computing orbital gradient...
	Computing diagonal blocks of GFM...
	Solving orbital Z-vector equations...
	Forming relaxed response density matrices...
	Forming relaxed GFM...
	Writing particle density matrices and GFM to disk...
	Necessary information has been sent to DERIV, which will take care of the rest.

*** tstop() called on c4-9.compute.lan at Tue Feb 23 13:28:49 2021
Module time:
	user time   =      38.35 seconds =       0.64 minutes
	system time =      27.77 seconds =       0.46 minutes
	total time  =         67 seconds =       1.12 minutes
Total time:
	user time   =     100.59 seconds =       1.68 minutes
	system time =      34.82 seconds =       0.58 minutes
	total time  =        136 seconds =       2.27 minutes
  Cartesian Displacement SALCs
  By SALC:
  Number of SALCs: 2, nirreps: A1
  Project out translations: False
  Project out rotations: False
	irrep = 0, ncomponent = 1
		0: atom 0, direction z, coef 1.000000
	irrep = 0, ncomponent = 1
		0: atom 1, direction z, coef 1.000000

  By Atomic Center:
  Number of atomic centers: 2
   Atomic Center 0:
	x component, size = 0
	y component, size = 0
	z component, size = 1
		0: salc 0, irrep 0, coef 1.000000
   Atomic Center 1:
	x component, size = 0
	y component, size = 0
	z component, size = 1
		0: salc 1, irrep 0, coef 1.000000

    Molecular point group: c2v
    Full point group: C_inf_v

    Geometry (in Bohr), charge = 0, multiplicity = 2:

       Center              X                  Y                   Z       
    ------------   -----------------  -----------------  -----------------
         O            0.000000000000     0.000000000000    -0.106176220599
         H            0.000000000000     0.000000000000     1.685093670823

	Presorting MO-basis TPDMs.
	Sorting File: MO TPDM (AA|AA) nbuckets = 1
	Sorting File: MO TPDM (AA|aa) nbuckets = 1
	Sorting File: MO TPDM (aa|aa) nbuckets = 1
	Starting first half-transformation.
	Sorting half-transformed TPDMs.
	First half integral transformation complete.


  -Nuclear Repulsion Energy 1st Derivatives:
     Atom            X                  Y                   Z
    ------   -----------------  -----------------  -----------------
       1        0.000000000000     0.000000000000     2.493262096379
       2        0.000000000000     0.000000000000    -2.493262096379


  -Core Hamiltonian Gradient:
     Atom            X                  Y                   Z
    ------   -----------------  -----------------  -----------------
       1        0.000000000000     0.000000000000    -4.969796318422
       2        0.000000000000     0.000000000000     4.969796318422


  -Lagrangian contribution to gradient:
     Atom            X                  Y                   Z
    ------   -----------------  -----------------  -----------------
       1        0.000000000000     0.000000000000     0.228104579384
       2        0.000000000000     0.000000000000    -0.228104579384


  -Two-electron contribution to gradient:
     Atom            X                  Y                   Z
    ------   -----------------  -----------------  -----------------
       1        0.000000000000     0.000000000000     2.266256570332
       2        0.000000000000     0.000000000000    -2.266256570332


  -Total gradient:
     Atom            X                  Y                   Z
    ------   -----------------  -----------------  -----------------
       1        0.000000000000     0.000000000000     0.017826927674
       2        0.000000000000     0.000000000000    -0.017826927674


			-----------------------------------------
			 OPTKING 2.0: for geometry optimizations 
			  - R.A. King,  Bethel University        
			-----------------------------------------

	Internal coordinates to be generated automatically.
	Detected frag 1 with atoms:  1 2
	---Fragment 1 Bond Connectivity---
	 1 : 2
	 2 : 1

	---Fragment 1 Geometry and Gradient---
	 O           0.0000000000        0.0000000000       -0.1061762206
	 H           0.0000000000        0.0000000000        1.6850936708
	             0.0000000000        0.0000000000        0.0178269277
	             0.0000000000        0.0000000000       -0.0178269277

	Previous optimization step data not found.  Starting new optimization.

	---Fragment 1 Intrafragment Coordinates---
	 - Coordinate -           - BOHR/RAD -       - ANG/DEG -
	 R(1,2)           =         1.791270	       0.947899

	Current energy   :       -75.6902892270

	Generating empirical Hessian (Schlegel '84) for each fragment.
	Taking RFO optimization step.
	Going to follow RFO solution 1.
	Using RFO vector 1.
	Norm of target step-size    0.03062
	Projected energy change by RFO approximation:        -0.0000769587

	Back-transformation to cartesian coordinates...
	Successfully converged to displaced geometry.

	--- Internal Coordinate Step in ANG or DEG, aJ/ANG or AJ/DEG ---
	 ---------------------------------------------------------------------------
	   Coordinate                Previous        Force       Change         New 
	   ----------                --------       ------       ------       ------
	    1 R(1,2)          =      0.947899     0.146871     0.016205     0.964104
	 ---------------------------------------------------------------------------
	Successfully symmetrized geometry.

  ==> Convergence Check <==

  Measures of convergence in internal coordinates in au.
  Criteria marked as inactive (o), active & met (*), and active & unmet ( ).
  --------------------------------------------------------------------------------------------- ~
   Step     Total Energy     Delta E     MAX Force     RMS Force      MAX Disp      RMS Disp    ~
  --------------------------------------------------------------------------------------------- ~
    Convergence Criteria             o    2.00e-06 *    1.00e-06 *    6.00e-06 *    4.00e-06 *  ~
  --------------------------------------------------------------------------------------------- ~
      1     -75.69028923   -7.57e+01 o    1.78e-02      1.78e-02      3.06e-02      3.06e-02    ~
  ---------------------------------------------------------------------------------------------

	Writing optimization data to binary file.
	Structure for next step:
	Cartesian Geometry (in Angstrom)
	    O     0.0000000000   0.0000000000  -0.0642885131
	    H     0.0000000000   0.0000000000   0.8998156420
			--------------------------
			 OPTKING Finished Execution 
			--------------------------

    Structure for next step:
    Molecular point group: c2v
    Full point group: C_inf_v

    Geometry (in Angstrom), charge = 0, multiplicity = 2:

    O       
    H             1          R1

    R1        =    0.9641041588

gradient() will perform analytic gradient computation.

*** tstart() called on c4-9.compute.lan
*** at Tue Feb 23 13:32:23 2021

   => Loading Basis Set <=

    Name: AUG-CC-PV5Z
    Role: ORBITAL
    Keyword: BASIS
    atoms 1 entry O          line   541 file /apps/gb/PSI4/1.4.0/share/psi4/basis/aug-cc-pv5z.gbs 
    atoms 2 entry H          line    42 file /apps/gb/PSI4/1.4.0/share/psi4/basis/aug-cc-pv5z.gbs 


         ---------------------------------------------------------
                                   SCF
               by Justin Turney, Rob Parrish, Andy Simmonett
                          and Daniel G. A. Smith
                              UHF Reference
                        1 Threads,   9536 MiB Core
         ---------------------------------------------------------

  ==> Geometry <==

    Molecular point group: c2v
    Full point group: C_inf_v

    Geometry (in Angstrom), charge = 0, multiplicity = 2:

       Center              X                  Y                   Z               Mass       
    ------------   -----------------  -----------------  -----------------  -----------------
         O            0.000000000000     0.000000000000    -0.057146573132    15.994914619570
         H            0.000000000000     0.000000000000     0.906957585715     1.007825032230

  Running in c2v symmetry.

  Rotational constants: A = ************  B =     19.12936  C =     19.12936 [cm^-1]
  Rotational constants: A = ************  B = 573483.76053  C = 573483.76053 [MHz]
  Nuclear repulsion =    4.391037676283833

  Charge       = 0
  Multiplicity = 2
  Electrons    = 9
  Nalpha       = 5
  Nbeta        = 4

  ==> Algorithm <==

  SCF Algorithm Type is PK.
  DIIS enabled.
  MOM disabled.
  Fractional occupation disabled.
  Guess Type is READ.
  Energy threshold   = 1.00e-10
  Density threshold  = 1.00e-10
  Integral threshold = 0.00e+00

  ==> Primary Basis <==

  Basis Set: AUG-CC-PV5Z
    Blend: AUG-CC-PV5Z
    Number of shells: 47
    Number of basis function: 207
    Number of Cartesian functions: 287
    Spherical Harmonics?: true
    Max angular momentum: 5

   => Loading Basis Set <=

    Name: AUG-CC-PV5Z
    Role: ORBITAL
    Keyword: BASIS
    atoms 1 entry O          line   541 file /apps/gb/PSI4/1.4.0/share/psi4/basis/aug-cc-pv5z.gbs 
    atoms 2 entry H          line    42 file /apps/gb/PSI4/1.4.0/share/psi4/basis/aug-cc-pv5z.gbs 

  Reading orbitals from file 180, no projection.

  ==> Pre-Iterations <==

   -------------------------------------------------------
    Irrep   Nso     Nmo     Nalpha   Nbeta   Ndocc  Nsocc
   -------------------------------------------------------
     A1        77      77       0       0       0       0
     A2        30      30       0       0       0       0
     B1        50      50       0       0       0       0
     B2        50      50       0       0       0       0
   -------------------------------------------------------
    Total     207     207       5       4       4       1
   -------------------------------------------------------

  ==> Integral Setup <==

  Using in-core PK algorithm.
   Calculation information:
      Number of atoms:                   2
      Number of AO shells:              47
      Number of primitives:             71
      Number of atomic orbitals:       287
      Number of basis functions:       207

      Integral cutoff                 1.00e-12
      Number of threads:                 1

  Performing in-core PK
  Using 463476312 doubles for integral storage.
  We computed 636756 shell quartets total.
  Whereas there are 636756 unique shell quartets.

  ==> DiskJK: Disk-Based J/K Matrices <==

    J tasked:                  Yes
    K tasked:                  Yes
    wK tasked:                  No
    Memory [MiB]:             7152
    Schwarz Cutoff:          1E-12

    OpenMP threads:              1

  Minimum eigenvalue in the overlap matrix is 1.8380641024E-05.
  Using Symmetric Orthogonalization.

  SCF Guess: Orbitals guess was supplied from a previous computation.

  ==> Iterations <==

                        Total Energy        Delta E     RMS |[F,P]|

   @UHF iter   0:   -75.42157815089020   -7.54216e+01   2.84771e-04 
   @UHF iter   1:   -75.42806710953627   -6.48896e-03   3.68726e-05 DIIS
   @UHF iter   2:   -75.42807529272658   -8.18319e-06   9.32274e-06 DIIS
   @UHF iter   3:   -75.42807607063057   -7.77904e-07   3.60120e-06 DIIS
   @UHF iter   4:   -75.42807628483448   -2.14204e-07   1.34185e-06 DIIS
   @UHF iter   5:   -75.42807631516177   -3.03273e-08   6.80331e-07 DIIS
   @UHF iter   6:   -75.42807632243824   -7.27647e-09   3.43011e-07 DIIS
   @UHF iter   7:   -75.42807632524388   -2.80563e-09   7.74598e-08 DIIS
   @UHF iter   8:   -75.42807632537095   -1.27073e-10   1.03173e-08 DIIS
   @UHF iter   9:   -75.42807632537263   -1.67688e-12   2.27282e-09 DIIS
   @UHF iter  10:   -75.42807632537264   -1.42109e-14   7.44356e-10 DIIS
   @UHF iter  11:   -75.42807632537277   -1.27898e-13   1.44933e-10 DIIS
   @UHF iter  12:   -75.42807632537287   -9.94760e-14   3.40907e-11 DIIS
  Energy and wave function converged.


  ==> Post-Iterations <==

   @Spin Contamination Metric:   7.084435038E-03
   @S^2 Expected:                7.500000000E-01
   @S^2 Observed:                7.570844350E-01
   @S   Expected:                5.000000000E-01
   @S   Observed:                5.000000000E-01

    Orbital Energies [Eh]
    ---------------------

    Alpha Occupied:                                                       

       1A1   -20.637336     2A1    -1.390674     3A1    -0.684429  
       1B2    -0.659124     1B1    -0.561994  

    Alpha Virtual:                                                        

       4A1     0.024067     5A1     0.088835     2B2     0.103584  
       2B1     0.108971     6A1     0.137567     3B2     0.179347  
       7A1     0.182482     3B1     0.182632     8A1     0.286580  
       9A1     0.399415     1A2     0.400183    10A1     0.422421  
       4B2     0.453151     4B1     0.468340     5B2     0.474715  
       5B1     0.485129    11A1     0.487637    12A1     0.514807  
       2A2     0.528536    13A1     0.528838     6B2     0.548626  
       6B1     0.558674    14A1     0.661443     7B2     0.971810  
       7B1     0.974946     8B2     0.975603     8B1     0.989420  
      15A1     0.997396    16A1     1.078910     9B2     1.126795  
       9B1     1.139331    17A1     1.139380     3A2     1.167372  
      18A1     1.170322     4A2     1.207241    19A1     1.208639  
      10B2     1.244581    20A1     1.251916    10B1     1.253435  
      11B2     1.279302    11B1     1.279376     5A2     1.330217  
      21A1     1.330529    22A1     1.392556    12B2     1.477347  
      12B1     1.507211    23A1     1.712696    13B2     1.858352  
      13B1     1.897336    24A1     2.212575     6A2     2.285316  
      25A1     2.286511    14B2     2.307762    14B1     2.322624  
       7A2     2.568074    26A1     2.568074    27A1     2.620558  
      15B2     2.636884    15B1     2.659888    28A1     2.712046  
      16B2     2.831902    16B1     2.831947    17B2     2.912632  
      17B1     2.915312    29A1     2.917539    18B2     2.927942  
       8A2     2.933088    30A1     2.943899    18B1     2.949944  
       9A2     3.051047    31A1     3.051110    32A1     3.124341  
      10A2     3.124342    33A1     3.129437    11A2     3.180805  
      34A1     3.180852    19B2     3.304012    19B1     3.325747  
      20B2     3.336110    20B1     3.336193    35A1     3.436433  
      21B2     3.539826    21B1     3.563355    36A1     3.642151  
      12A2     3.819947    37A1     3.821657    38A1     4.280197  
      22B2     4.548661    22B1     4.582595    23B2     4.658358  
      23B1     4.658448    24B2     4.726310    24B1     4.780354  
      39A1     5.040106    13A2     5.406514    40A1     5.406712  
      41A1     5.635643    25B2     5.799147    25B1     5.825288  
      14A2     5.912729    42A1     5.912918    26B2     6.149178  
      26B1     6.170892    27B2     6.185484    27B1     6.185484  
      43A1     6.233098    15A2     6.456863    44A1     6.456863  
      28B2     6.658321    28B1     6.703959    45A1     6.879219  
      46A1     7.086048    16A2     7.086147    47A1     7.102914  
      29B2     7.150530    29B1     7.152267    30B2     7.181853  
      17A2     7.188516    48A1     7.194237    30B1     7.211437  
      31B2     7.232947    31B1     7.235801    32B2     7.587409  
      32B1     7.587434    49A1     7.708581    18A2     7.709991  
      50A1     7.817500    19A2     7.904880    51A1     7.905047  
      33B2     8.486206    33B1     8.525133    52A1     8.617339  
      53A1     8.828581    34B2     9.098999    34B1     9.144075  
      20A2     9.383966    54A1     9.384447    55A1    10.290137  
      35B2    10.444961    35B1    10.492163    56A1    12.779858  
      36B2    12.971848    36B1    12.971848    21A2    13.136456  
      57A1    13.136456    58A1    13.500298    22A2    13.500437  
      37B2    13.888587    37B1    13.888590    59A1    14.080457  
      60A1    14.128245    23A2    14.128247    38B2    14.193612  
      38B1    14.212675    39B2    14.468266    39B1    14.482629  
      61A1    14.679971    62A1    15.555192    24A2    15.657533  
      63A1    15.659619    40B2    15.947884    40B1    15.989523  
      41B2    16.211328    41B1    16.211328    25A2    16.348076  
      64A1    16.348076    42B2    16.759927    42B1    16.808420  
      43B2    16.866811    43B1    16.866819    65A1    16.905636  
      44B2    17.790099    44B1    17.822653    66A1    17.869320  
      26A2    17.873250    67A1    18.036708    45B2    18.164353  
      45B1    18.194647    68A1    18.590134    69A1    19.068575  
      27A2    19.068576    46B2    19.176831    46B1    19.176840  
      47B2    19.218773    47B1    19.218783    70A1    19.523694  
      28A2    19.578933    71A1    19.593608    29A2    19.985995  
      72A1    19.987042    48B2    20.479367    48B1    20.534000  
      73A1    21.082080    30A2    22.401338    74A1    22.401858  
      49B2    23.205769    49B1    23.256137    50B2    23.966991  
      50B1    24.013621    75A1    26.004897    76A1    26.269328  
      77A1    65.022326  

    Beta Occupied:                                                        

       1A1   -20.597696     2A1    -1.232588     3A1    -0.640427  
       1B1    -0.514002  

    Beta Virtual:                                                         

       4A1     0.024928     1B2     0.056004     5A1     0.089762  
       2B1     0.110022     6A1     0.140656     2B2     0.147789  
       3B1     0.182568     7A1     0.184225     3B2     0.190628  
       8A1     0.291557     1A2     0.405327     9A1     0.405374  
      10A1     0.425219     4B1     0.471530     4B2     0.479246  
       5B1     0.485299    11A1     0.490714     5B2     0.508547  
      12A1     0.520131     2A2     0.528858    13A1     0.529107  
       6B1     0.560241     6B2     0.578696    14A1     0.671112  
       7B1     0.978761     7B2     0.978778     8B1     0.990112  
       8B2     1.003521    15A1     1.004067    16A1     1.084985  
       9B2     1.131241     9B1     1.138759    17A1     1.148408  
       3A2     1.173266    18A1     1.173888     4A2     1.229807  
      19A1     1.229969    10B2     1.252809    10B1     1.253764  
      20A1     1.258526    11B2     1.279865    11B1     1.279867  
       5A2     1.343781    21A1     1.344277    22A1     1.402823  
      12B1     1.512987    12B2     1.532934    23A1     1.721045  
      13B1     1.908113    13B2     1.936760    24A1     2.219845  
       6A2     2.293150    25A1     2.293495    14B2     2.313429  
      14B1     2.320930    26A1     2.574389     7A2     2.574389  
      27A1     2.632241    15B2     2.657486    15B1     2.662251  
      28A1     2.720825    16B1     2.851917    16B2     2.851919  
      17B2     2.923057    17B1     2.923509    29A1     2.932971  
       8A2     2.939969    18B2     2.943215    30A1     2.948233  
      18B1     2.951021     9A2     3.064898    31A1     3.065027  
      32A1     3.126312    10A2     3.126313    33A1     3.138607  
      11A2     3.235821    34A1     3.236811    19B1     3.329708  
      19B2     3.331590    20B1     3.337550    20B2     3.337609  
      35A1     3.450225    21B2     3.551885    21B1     3.565204  
      36A1     3.653169    12A2     3.836163    37A1     3.836456  
      38A1     4.289004    22B2     4.583997    22B1     4.589177  
      23B2     4.661810    23B1     4.661816    24B1     4.794835  
      24B2     4.809222    39A1     5.058111    40A1     5.412174  
      13A2     5.412195    41A1     5.642973    25B2     5.817454  
      25B1     5.827603    14A2     5.920363    42A1     5.920376  
      26B2     6.157415    26B1     6.171154    27B2     6.197066  
      27B1     6.197066    43A1     6.242898    44A1     6.466737  
      15A2     6.466737    28B2     6.702364    28B1     6.713369  
      45A1     6.902266    46A1     7.110520    16A2     7.110735  
      47A1     7.112796    29B2     7.169995    29B1     7.171397  
      30B2     7.194024    17A2     7.199196    48A1     7.201512  
      30B1     7.216131    31B2     7.253607    31B1     7.253957  
      32B2     7.620597    32B1     7.620599    49A1     7.740311  
      18A2     7.741008    50A1     7.825175    19A2     7.946808  
      51A1     7.947347    33B2     8.507559    33B1     8.529416  
      52A1     8.636239    53A1     8.842419    34B2     9.134374  
      34B1     9.152628    20A2     9.422855    54A1     9.422950  
      55A1    10.300634    35B2    10.489645    35B1    10.502257  
      56A1    12.809105    36B2    12.972210    36B1    12.972210  
      57A1    13.136681    21A2    13.136681    58A1    13.503325  
      22A2    13.503405    37B2    13.890391    37B1    13.890392  
      59A1    14.086558    60A1    14.127013    23A2    14.127019  
      38B2    14.198963    38B1    14.212647    39B2    14.472192  
      39B1    14.482672    61A1    14.682918    62A1    15.561026  
      24A2    15.663337    63A1    15.664375    40B2    15.985192  
      40B1    15.997751    41B2    16.236537    41B1    16.236537  
      25A2    16.368785    64A1    16.368785    42B2    16.803631  
      42B1    16.818530    43B2    16.883271    43B1    16.883274  
      65A1    16.909029    44B2    17.800922    44B1    17.824579  
      66A1    17.886315    26A2    17.888194    67A1    18.044940  
      45B2    18.178771    45B1    18.197735    68A1    18.613545  
      69A1    19.107023    27A2    19.107023    46B2    19.210379  
      46B1    19.210380    47B2    19.263720    47B1    19.263721  
      70A1    19.544245    28A2    19.604054    71A1    19.609347  
      29A2    20.015407    72A1    20.015740    48B2    20.513003  
      48B1    20.544061    73A1    21.098856    30A2    22.447336  
      74A1    22.447432    49B2    23.237709    49B1    23.264587  
      50B2    23.999047    50B1    24.022518    75A1    26.013456  
      76A1    26.279611    77A1    65.037758  

    Final Occupation by Irrep:
             A1    A2    B1    B2 
    DOCC [     3,    0,    1,    0 ]
    SOCC [     0,    0,    0,    1 ]

  @UHF Final Energy:   -75.42807632537287

   => Energetics <=

    Nuclear Repulsion Energy =              4.3910376762838332
    One-Electron Energy =                -112.7199575083074023
    Two-Electron Energy =                  32.9008435066507019
    Total Energy =                        -75.4280763253728708

  UHF NO Occupations:
  HONO-2 :    2 A1 1.9992246
  HONO-1 :    3 A1 1.9978587
  HONO-0 :    1 B2 1.0000000
  LUNO+0 :    4 A1 0.0021413
  LUNO+1 :    5 A1 0.0007754
  LUNO+2 :    2 B1 0.0006270
  LUNO+3 :    6 A1 0.0000013


Computation Completed


Properties will be evaluated at   0.000000,   0.000000,   0.000000 [a0]

Properties computed using the SCF density matrix

  Nuclear Dipole Moment: [e a0]
     X:     0.0000      Y:     0.0000      Z:     0.8500

  Electronic Dipole Moment: [e a0]
     X:     0.0000      Y:     0.0000      Z:    -0.1604

  Dipole Moment: [e a0]
     X:     0.0000      Y:     0.0000      Z:     0.6896     Total:     0.6896

  Dipole Moment: [D]
     X:     0.0000      Y:     0.0000      Z:     1.7528     Total:     1.7528


*** tstop() called on c4-9.compute.lan at Tue Feb 23 13:33:03 2021
Module time:
	user time   =      37.43 seconds =       0.62 minutes
	system time =       2.28 seconds =       0.04 minutes
	total time  =         40 seconds =       0.67 minutes
Total time:
	user time   =     330.90 seconds =       5.51 minutes
	system time =      57.77 seconds =       0.96 minutes
	total time  =        390 seconds =       6.50 minutes
 MINTS: Wrapper to libmints.
   by Justin Turney

   Calculation information:
      Number of threads:                 1
      Number of atoms:                   2
      Number of AO shells:              47
      Number of SO shells:              47
      Number of primitives:             71
      Number of atomic orbitals:       287
      Number of basis functions:       207

      Number of irreps:                  4
      Integral cutoff                 0.00e+00
      Number of functions per irrep: [  77   30   50   50 ]

 OEINTS: Overlap, kinetic, potential, dipole, and quadrupole integrals
         stored in file 35.

      Computing two-electron integrals...done
      Computed 53502191 non-zero two-electron integrals.
        Stored in file 33.


*** tstart() called on c4-9.compute.lan
*** at Tue Feb 23 13:33:19 2021


 ============================================================================== 
 ============================================================================== 
 ============================================================================== 

                       MP2   
              Program Written by Ugur Bozkaya,
              Latest Revision June 25, 2014.

 ============================================================================== 
 ============================================================================== 
 ============================================================================== 

	RMS orbital gradient is changed to :     1.00e-07
	MAX orbital gradient is changed to :     1.00e-04
	MO spaces per irreps... 

	IRREP   FC   AOCC  BOCC  AVIR    BVIR  FV 
	==========================================
	  A1     0     3     3    74     74     0
	  A2     0     0     0    30     30     0
	  B1     0     1     1    49     49     0
	  B2     0     1     0    49     50     0
	==========================================

	Computing MP2 energy using SCF MOs (Canonical MP2)... 
	============================================================================== 
	Nuclear Repulsion Energy (a.u.)    :     4.39103767628383
	SCF Energy (a.u.)                  :   -75.42807632537287
	REF Energy (a.u.)                  :   -75.42807632537287
	Alpha-Alpha Contribution (a.u.)    :    -0.03807092640503
	Alpha-Beta Contribution (a.u.)     :    -0.20601649097322
	Beta-Beta Contribution (a.u.)      :    -0.01840538496697
	Scaled_SS Correlation Energy (a.u.):    -0.01882543712400
	Scaled_OS Correlation Energy (a.u.):    -0.24721978916786
	SCS-MP2 Total Energy (a.u.)        :   -75.69412155166475
	SOS-MP2 Total Energy (a.u.)        :   -75.69589776363806
	SCSN-MP2 Total Energy (a.u.)       :   -75.52747463338760
	SCS-MP2-VDW Total Energy (a.u.)    :   -75.72001558950458
	SOS-PI-MP2 Total Energy (a.u.)     :   -75.71649941273537
	MP2 Correlation Energy (a.u.)      :    -0.26249280234523
	MP2 Total Energy (a.u.)            :   -75.69056912771811
	============================================================================== 
	Analytic gradient computation is starting...
	Computing response density matrices...
	Computing off-diagonal blocks of GFM...
	Forming independent-pairs...
	Number of alpha independent-pairs:320
	Number of beta independent-pairs :271
	Computing orbital gradient...
	Computing diagonal blocks of GFM...
	Solving orbital Z-vector equations...
	Forming relaxed response density matrices...
	Forming relaxed GFM...
	Writing particle density matrices and GFM to disk...
	Necessary information has been sent to DERIV, which will take care of the rest.

*** tstop() called on c4-9.compute.lan at Tue Feb 23 13:34:22 2021
Module time:
	user time   =      35.24 seconds =       0.59 minutes
	system time =      26.10 seconds =       0.43 minutes
	total time  =         63 seconds =       1.05 minutes
Total time:
	user time   =     381.27 seconds =       6.35 minutes
	system time =      84.70 seconds =       1.41 minutes
	total time  =        469 seconds =       7.82 minutes
  Cartesian Displacement SALCs
  By SALC:
  Number of SALCs: 2, nirreps: A1
  Project out translations: False
  Project out rotations: False
	irrep = 0, ncomponent = 1
		0: atom 0, direction z, coef 1.000000
	irrep = 0, ncomponent = 1
		0: atom 1, direction z, coef 1.000000

  By Atomic Center:
  Number of atomic centers: 2
   Atomic Center 0:
	x component, size = 0
	y component, size = 0
	z component, size = 1
		0: salc 0, irrep 0, coef 1.000000
   Atomic Center 1:
	x component, size = 0
	y component, size = 0
	z component, size = 1
		0: salc 1, irrep 0, coef 1.000000

    Molecular point group: c2v
    Full point group: C_inf_v

    Geometry (in Bohr), charge = 0, multiplicity = 2:

       Center              X                  Y                   Z       
    ------------   -----------------  -----------------  -----------------
         O            0.000000000000     0.000000000000    -0.107991372229
         H            0.000000000000     0.000000000000     1.713901444407

	Presorting MO-basis TPDMs.
	Sorting File: MO TPDM (AA|AA) nbuckets = 1
	Sorting File: MO TPDM (AA|aa) nbuckets = 1
	Sorting File: MO TPDM (aa|aa) nbuckets = 1
	Starting first half-transformation.
	Sorting half-transformed TPDMs.
	First half integral transformation complete.


  -Nuclear Repulsion Energy 1st Derivatives:
     Atom            X                  Y                   Z
    ------   -----------------  -----------------  -----------------
       1        0.000000000000     0.000000000000     2.410151484318
       2        0.000000000000     0.000000000000    -2.410151484318


  -Core Hamiltonian Gradient:
     Atom            X                  Y                   Z
    ------   -----------------  -----------------  -----------------
       1        0.000000000000     0.000000000000    -4.845754287992
       2        0.000000000000     0.000000000000     4.845754287992


  -Lagrangian contribution to gradient:
     Atom            X                  Y                   Z
    ------   -----------------  -----------------  -----------------
       1        0.000000000000     0.000000000000     0.216360626517
       2        0.000000000000     0.000000000000    -0.216360626517


  -Two-electron contribution to gradient:
     Atom            X                  Y                   Z
    ------   -----------------  -----------------  -----------------
       1        0.000000000000     0.000000000000     2.220011519897
       2        0.000000000000     0.000000000000    -2.220011519897


  -Total gradient:
     Atom            X                  Y                   Z
    ------   -----------------  -----------------  -----------------
       1        0.000000000000     0.000000000000     0.000769342741
       2        0.000000000000     0.000000000000    -0.000769342741


			-----------------------------------------
			 OPTKING 2.0: for geometry optimizations 
			  - R.A. King,  Bethel University        
			-----------------------------------------

	Previous internal coordinate definitions found.
	---Fragment 1 Geometry and Gradient---
	 O           0.0000000000        0.0000000000       -0.1079913722
	 H           0.0000000000        0.0000000000        1.7139014444
	             0.0000000000        0.0000000000        0.0007693427
	             0.0000000000        0.0000000000       -0.0007693427

	---Fragment 1 Intrafragment Coordinates---
	 - Coordinate -           - BOHR/RAD -       - ANG/DEG -
	 R(1,2)           =         1.821893	       0.964104

	Current energy   :       -75.6905691277

	Energy change for the previous step:
		Projected    :        -0.0000769587
		Actual       :        -0.0002799008
	Energy ratio indicates good step: Trust radius increased to 1.000e+00.


	Performing BFGS update.
	Previous computed or guess Hessian on step 1.
	Steps to be used in Hessian update: 1
	Taking RFO optimization step.
	Going to follow RFO solution 1.
	Using RFO vector 1.
	Norm of target step-size    0.00138
	Projected energy change by RFO approximation:        -0.0000001088

	Back-transformation to cartesian coordinates...
	Successfully converged to displaced geometry.

	--- Internal Coordinate Step in ANG or DEG, aJ/ANG or AJ/DEG ---
	 ---------------------------------------------------------------------------
	   Coordinate                Previous        Force       Change         New 
	   ----------                --------       ------       ------       ------
	    1 R(1,2)          =      0.964104     0.006338     0.000731     0.964835
	 ---------------------------------------------------------------------------
	Successfully symmetrized geometry.

  ==> Convergence Check <==

  Measures of convergence in internal coordinates in au.
  Criteria marked as inactive (o), active & met (*), and active & unmet ( ).
  ---------------------------------------------------------------------------------------------
   Step     Total Energy     Delta E     MAX Force     RMS Force      MAX Disp      RMS Disp   
  ---------------------------------------------------------------------------------------------
    Convergence Criteria             o    2.00e-06 *    1.00e-06 *    6.00e-06 *    4.00e-06 *
  ---------------------------------------------------------------------------------------------
      2     -75.69056913   -2.80e-04 o    7.69e-04      7.69e-04      1.38e-03      1.38e-03    ~
  ---------------------------------------------------------------------------------------------

	Writing optimization data to binary file.
	Structure for next step:
	Cartesian Geometry (in Angstrom)
	    O     0.0000000000   0.0000000000  -0.0575120156
	    H     0.0000000000   0.0000000000   0.9073230249
			--------------------------
			 OPTKING Finished Execution 
			--------------------------

    Structure for next step:
    Molecular point group: c2v
    Full point group: C_inf_v

    Geometry (in Angstrom), charge = 0, multiplicity = 2:

    O       
    H             1          R1

    R1        =    0.9648350443

gradient() will perform analytic gradient computation.

*** tstart() called on c4-9.compute.lan
*** at Tue Feb 23 13:37:52 2021

   => Loading Basis Set <=

    Name: AUG-CC-PV5Z
    Role: ORBITAL
    Keyword: BASIS
    atoms 1 entry O          line   541 file /apps/gb/PSI4/1.4.0/share/psi4/basis/aug-cc-pv5z.gbs 
    atoms 2 entry H          line    42 file /apps/gb/PSI4/1.4.0/share/psi4/basis/aug-cc-pv5z.gbs 


         ---------------------------------------------------------
                                   SCF
               by Justin Turney, Rob Parrish, Andy Simmonett
                          and Daniel G. A. Smith
                              UHF Reference
                        1 Threads,   9536 MiB Core
         ---------------------------------------------------------

  ==> Geometry <==

    Molecular point group: c2v
    Full point group: C_inf_v

    Geometry (in Angstrom), charge = 0, multiplicity = 2:

       Center              X                  Y                   Z               Mass       
    ------------   -----------------  -----------------  -----------------  -----------------
         O            0.000000000000     0.000000000000    -0.057189895834    15.994914619570
         H            0.000000000000     0.000000000000     0.907645148429     1.007825032230

  Running in c2v symmetry.

  Rotational constants: A = ************  B =     19.10039  C =     19.10039 [cm^-1]
  Rotational constants: A = ************  B = 572615.23454  C = 572615.23454 [MHz]
  Nuclear repulsion =    4.387711361163481

  Charge       = 0
  Multiplicity = 2
  Electrons    = 9
  Nalpha       = 5
  Nbeta        = 4

  ==> Algorithm <==

  SCF Algorithm Type is PK.
  DIIS enabled.
  MOM disabled.
  Fractional occupation disabled.
  Guess Type is READ.
  Energy threshold   = 1.00e-10
  Density threshold  = 1.00e-10
  Integral threshold = 0.00e+00

  ==> Primary Basis <==

  Basis Set: AUG-CC-PV5Z
    Blend: AUG-CC-PV5Z
    Number of shells: 47
    Number of basis function: 207
    Number of Cartesian functions: 287
    Spherical Harmonics?: true
    Max angular momentum: 5

   => Loading Basis Set <=

    Name: AUG-CC-PV5Z
    Role: ORBITAL
    Keyword: BASIS
    atoms 1 entry O          line   541 file /apps/gb/PSI4/1.4.0/share/psi4/basis/aug-cc-pv5z.gbs 
    atoms 2 entry H          line    42 file /apps/gb/PSI4/1.4.0/share/psi4/basis/aug-cc-pv5z.gbs 

  Reading orbitals from file 180, no projection.

  ==> Pre-Iterations <==

   -------------------------------------------------------
    Irrep   Nso     Nmo     Nalpha   Nbeta   Ndocc  Nsocc
   -------------------------------------------------------
     A1        77      77       0       0       0       0
     A2        30      30       0       0       0       0
     B1        50      50       0       0       0       0
     B2        50      50       0       0       0       0
   -------------------------------------------------------
    Total     207     207       5       4       4       1
   -------------------------------------------------------

  ==> Integral Setup <==

  Using in-core PK algorithm.
   Calculation information:
      Number of atoms:                   2
      Number of AO shells:              47
      Number of primitives:             71
      Number of atomic orbitals:       287
      Number of basis functions:       207

      Integral cutoff                 1.00e-12
      Number of threads:                 1

  Performing in-core PK
  Using 463476312 doubles for integral storage.
  We computed 636756 shell quartets total.
  Whereas there are 636756 unique shell quartets.

  ==> DiskJK: Disk-Based J/K Matrices <==

    J tasked:                  Yes
    K tasked:                  Yes
    wK tasked:                  No
    Memory [MiB]:             7152
    Schwarz Cutoff:          1E-12

    OpenMP threads:              1

  Minimum eigenvalue in the overlap matrix is 1.8419899066E-05.
  Using Symmetric Orthogonalization.

  SCF Guess: Orbitals guess was supplied from a previous computation.

  ==> Iterations <==

                        Total Energy        Delta E     RMS |[F,P]|

   @UHF iter   0:   -75.42777454192790   -7.54278e+01   1.27170e-05 
   @UHF iter   1:   -75.42805553006720   -2.80988e-04   1.65972e-06 DIIS
   @UHF iter   2:   -75.42805554658354   -1.65163e-08   4.17371e-07 DIIS
   @UHF iter   3:   -75.42805554816387   -1.58033e-09   1.63463e-07 DIIS
   @UHF iter   4:   -75.42805554861155   -4.47685e-10   6.03109e-08 DIIS
   @UHF iter   5:   -75.42805554867631   -6.47589e-11   3.04649e-08 DIIS
   @UHF iter   6:   -75.42805554869138   -1.50635e-11   1.56295e-08 DIIS
   @UHF iter   7:   -75.42805554869707   -5.69855e-12   3.45711e-09 DIIS
   @UHF iter   8:   -75.42805554869732   -2.41585e-13   4.67966e-10 DIIS
   @UHF iter   9:   -75.42805554869733   -1.42109e-14   1.06595e-10 DIIS
   @UHF iter  10:   -75.42805554869729    4.26326e-14   3.47854e-11 DIIS
  Energy and wave function converged.


  ==> Post-Iterations <==

   @Spin Contamination Metric:   7.094091550E-03
   @S^2 Expected:                7.500000000E-01
   @S^2 Observed:                7.570940916E-01
   @S   Expected:                5.000000000E-01
   @S   Observed:                5.000000000E-01

    Orbital Energies [Eh]
    ---------------------

    Alpha Occupied:                                                       

       1A1   -20.637396     2A1    -1.390459     3A1    -0.684219  
       1B2    -0.659095     1B1    -0.561963  

    Alpha Virtual:                                                        

       4A1     0.024060     5A1     0.088835     2B2     0.103593  
       2B1     0.108980     6A1     0.137538     3B2     0.179327  
       7A1     0.182479     3B1     0.182611     8A1     0.286506  
       9A1     0.399422     1A2     0.400194    10A1     0.422292  
       4B2     0.453119     4B1     0.468293     5B2     0.474730  
       5B1     0.485159    11A1     0.487624    12A1     0.514848  
       2A2     0.528585    13A1     0.528888     6B2     0.548694  
       6B1     0.558745    14A1     0.661191     7B2     0.971763  
       7B1     0.974940     8B2     0.975585     8B1     0.989348  
      15A1     0.997464    16A1     1.078809     9B2     1.126722  
       9B1     1.139262    17A1     1.139428     3A2     1.167334  
      18A1     1.170290     4A2     1.207156    19A1     1.208557  
      10B2     1.244546    20A1     1.252024    10B1     1.253399  
      11B2     1.279331    11B1     1.279405     5A2     1.330430  
      21A1     1.330741    22A1     1.392077    12B2     1.477575  
      12B1     1.507442    23A1     1.712351    13B2     1.858050  
      13B1     1.897031    24A1     2.212900     6A2     2.284528  
      25A1     2.285737    14B2     2.307469    14B1     2.322316  
       7A2     2.568060    26A1     2.568060    27A1     2.620793  
      15B2     2.636350    15B1     2.659339    28A1     2.711600  
      16B2     2.831736    16B1     2.831781    17B2     2.912599  
      17B1     2.915227    29A1     2.917506    18B2     2.928028  
       8A2     2.933129    30A1     2.943873    18B1     2.950086  
       9A2     3.051565    31A1     3.051622    32A1     3.124122  
      10A2     3.124123    33A1     3.128787    11A2     3.180506  
      34A1     3.180551    19B2     3.304893    19B1     3.326670  
      20B2     3.336726    20B1     3.336812    35A1     3.435701  
      21B2     3.538984    21B1     3.562488    36A1     3.641579  
      12A2     3.819363    37A1     3.821072    38A1     4.281579  
      22B2     4.548548    22B1     4.582326    23B2     4.656743  
      23B1     4.656836    24B2     4.725232    24B1     4.779392  
      39A1     5.038209    13A2     5.405373    40A1     5.405572  
      41A1     5.635913    25B2     5.798984    25B1     5.825179  
      14A2     5.912529    42A1     5.912717    26B2     6.148396  
      26B1     6.170083    27B2     6.185518    27B1     6.185518  
      43A1     6.230505    15A2     6.456331    44A1     6.456331  
      28B2     6.658335    28B1     6.703902    45A1     6.877540  
      46A1     7.086054    16A2     7.086154    47A1     7.102876  
      29B2     7.150044    29B1     7.151710    30B2     7.181795  
      17A2     7.188483    48A1     7.194210    30B1     7.211395  
      31B2     7.232807    31B1     7.235732    32B2     7.586775  
      32B1     7.586801    49A1     7.707797    18A2     7.709194  
      50A1     7.817754    19A2     7.904948    51A1     7.905150  
      33B2     8.483804    33B1     8.522722    52A1     8.618294  
      53A1     8.828916    34B2     9.096176    34B1     9.141238  
      20A2     9.381012    54A1     9.381493    55A1    10.285370  
      35B2    10.444320    35B1    10.491544    56A1    12.777753  
      36B2    12.971374    36B1    12.971375    21A2    13.136110  
      57A1    13.136110    58A1    13.499072    22A2    13.499212  
      37B2    13.885847    37B1    13.885850    59A1    14.079477  
      60A1    14.127912    23A2    14.127914    38B2    14.191493  
      38B1    14.210617    39B2    14.466865    39B1    14.481121  
      61A1    14.676482    62A1    15.551857    24A2    15.652624  
      63A1    15.654734    40B2    15.945839    40B1    15.987535  
      41B2    16.211359    41B1    16.211359    25A2    16.347738  
      64A1    16.347738    42B2    16.762568    42B1    16.810960  
      43B2    16.864668    43B1    16.864676    65A1    16.907366  
      44B2    17.783289    44B1    17.815783    66A1    17.867013  
      26A2    17.870840    67A1    18.038071    45B2    18.163991  
      45B1    18.194345    68A1    18.584453    69A1    19.068572  
      27A2    19.068573    46B2    19.176883    46B1    19.176892  
      47B2    19.218556    47B1    19.218567    70A1    19.518302  
      28A2    19.577556    71A1    19.591231    29A2    19.981350  
      72A1    19.982391    48B2    20.474154    48B1    20.528794  
      73A1    21.074828    30A2    22.400246    74A1    22.400763  
      49B2    23.206730    49B1    23.257048    50B2    23.954108  
      50B1    24.000800    75A1    25.989230    76A1    26.263362  
      77A1    65.019492  

    Beta Occupied:                                                        

       1A1   -20.597749     2A1    -1.232323     3A1    -0.640230  
       1B1    -0.513964  

    Beta Virtual:                                                         

       4A1     0.024923     1B2     0.056019     5A1     0.089765  
       2B1     0.110032     6A1     0.140630     2B2     0.147819  
       3B1     0.182545     7A1     0.184223     3B2     0.190599  
       8A1     0.291493     1A2     0.405338     9A1     0.405385  
      10A1     0.425078     4B1     0.471468     4B2     0.479213  
       5B1     0.485343    11A1     0.490704     5B2     0.508575  
      12A1     0.520174     2A2     0.528907    13A1     0.529155  
       6B1     0.560313     6B2     0.578773    14A1     0.670856  
       7B1     0.978754     7B2     0.978771     8B1     0.990030  
       8B2     1.003416    15A1     1.004120    16A1     1.084892  
       9B2     1.131181     9B1     1.138692    17A1     1.148450  
       3A2     1.173210    18A1     1.173834     4A2     1.229752  
      19A1     1.229914    10B2     1.252781    10B1     1.253726  
      20A1     1.258650    11B2     1.279894    11B1     1.279896  
       5A2     1.343977    21A1     1.344472    22A1     1.402324  
      12B1     1.513223    12B2     1.533169    23A1     1.720701  
      13B1     1.907808    13B2     1.936453    24A1     2.220177  
       6A2     2.292357    25A1     2.292708    14B2     2.313119  
      14B1     2.320612    26A1     2.574373     7A2     2.574373  
      27A1     2.632474    15B2     2.656917    15B1     2.661696  
      28A1     2.720357    16B1     2.851716    16B2     2.851718  
      17B2     2.923015    17B1     2.923458    29A1     2.932985  
       8A2     2.940010    18B2     2.943360    30A1     2.948215  
      18B1     2.951167     9A2     3.065388    31A1     3.065517  
      32A1     3.126091    10A2     3.126092    33A1     3.137942  
      11A2     3.235524    34A1     3.236513    19B1     3.330643  
      19B2     3.332537    20B1     3.338174    20B2     3.338239  
      35A1     3.449468    21B2     3.551021    21B1     3.564333  
      36A1     3.652612    12A2     3.835613    37A1     3.835905  
      38A1     4.290385    22B2     4.583596    22B1     4.588859  
      23B2     4.660187    23B1     4.660193    24B1     4.793914  
      24B2     4.808364    39A1     5.056180    40A1     5.411031  
      13A2     5.411052    41A1     5.643257    25B2     5.817352  
      25B1     5.827505    14A2     5.920123    42A1     5.920134  
      26B2     6.156612    26B1     6.170341    27B2     6.197100  
      27B1     6.197100    43A1     6.240338    44A1     6.466204  
      15A2     6.466204    28B2     6.702334    28B1     6.713302  
      45A1     6.900531    46A1     7.110527    16A2     7.110743  
      47A1     7.112786    29B2     7.169554    29B1     7.170890  
      30B2     7.194016    17A2     7.199162    48A1     7.201480  
      30B1     7.216174    31B2     7.253324    31B1     7.253688  
      32B2     7.620041    32B1     7.620043    49A1     7.739576  
      18A2     7.740263    50A1     7.825459    19A2     7.946824  
      51A1     7.947375    33B2     8.505162    33B1     8.527007  
      52A1     8.637375    53A1     8.842598    34B2     9.131515  
      34B1     9.149785    20A2     9.419928    54A1     9.420024  
      55A1    10.295875    35B2    10.489045    35B1    10.501654  
      56A1    12.806980    36B2    12.971725    36B1    12.971725  
      57A1    13.136328    21A2    13.136328    58A1    13.502090  
      22A2    13.502170    37B2    13.887639    37B1    13.887640  
      59A1    14.085597    60A1    14.126675    23A2    14.126680  
      38B2    14.196863    38B1    14.210593    39B2    14.470744  
      39B1    14.481151    61A1    14.679396    62A1    15.557691  
      24A2    15.658411    63A1    15.659461    40B2    15.983280  
      40B1    15.995793    41B2    16.236569    41B1    16.236569  
      25A2    16.368450    64A1    16.368450    42B2    16.806135  
      42B1    16.821039    43B2    16.881135    43B1    16.881138  
      65A1    16.910783    44B2    17.794078    44B1    17.817697  
      66A1    17.883936    26A2    17.885767    67A1    18.046315  
      45B2    18.178446    45B1    18.197445    68A1    18.607901  
      69A1    19.107023    27A2    19.107024    46B2    19.210425  
      46B1    19.210427    47B2    19.263517    47B1    19.263518  
      70A1    19.538221    28A2    19.602642    71A1    19.607554  
      29A2    20.010835    72A1    20.011165    48B2    20.507777  
      48B1    20.538856    73A1    21.091629    30A2    22.446253  
      74A1    22.446348    49B2    23.238589    49B1    23.265481  
      50B2    23.986292    50B1    24.009732    75A1    25.997814  
      76A1    26.273646    77A1    65.034927  

    Final Occupation by Irrep:
             A1    A2    B1    B2 
    DOCC [     3,    0,    1,    0 ]
    SOCC [     0,    0,    0,    1 ]

  @UHF Final Energy:   -75.42805554869729

   => Energetics <=

    Nuclear Repulsion Energy =              4.3877113611634808
    One-Electron Energy =                -112.7141364759029756
    Two-Electron Energy =                  32.8983695660422057
    Total Energy =                        -75.4280555486972872

  UHF NO Occupations:
  HONO-2 :    2 A1 1.9992213
  HONO-1 :    3 A1 1.9978576
  HONO-0 :    1 B2 1.0000000
  LUNO+0 :    4 A1 0.0021424
  LUNO+1 :    5 A1 0.0007787
  LUNO+2 :    2 B1 0.0006274
  LUNO+3 :    6 A1 0.0000013


Computation Completed


Properties will be evaluated at   0.000000,   0.000000,   0.000000 [a0]

Properties computed using the SCF density matrix

  Nuclear Dipole Moment: [e a0]
     X:     0.0000      Y:     0.0000      Z:     0.8506

  Electronic Dipole Moment: [e a0]
     X:     0.0000      Y:     0.0000      Z:    -0.1608

  Dipole Moment: [e a0]
     X:     0.0000      Y:     0.0000      Z:     0.6898     Total:     0.6898

  Dipole Moment: [D]
     X:     0.0000      Y:     0.0000      Z:     1.7534     Total:     1.7534


*** tstop() called on c4-9.compute.lan at Tue Feb 23 13:38:26 2021
Module time:
	user time   =      32.27 seconds =       0.54 minutes
	system time =       1.64 seconds =       0.03 minutes
	total time  =         34 seconds =       0.57 minutes
Total time:
	user time   =     596.28 seconds =       9.94 minutes
	system time =     106.77 seconds =       1.78 minutes
	total time  =        713 seconds =      11.88 minutes
 MINTS: Wrapper to libmints.
   by Justin Turney

   Calculation information:
      Number of threads:                 1
      Number of atoms:                   2
      Number of AO shells:              47
      Number of SO shells:              47
      Number of primitives:             71
      Number of atomic orbitals:       287
      Number of basis functions:       207

      Number of irreps:                  4
      Integral cutoff                 0.00e+00
      Number of functions per irrep: [  77   30   50   50 ]

 OEINTS: Overlap, kinetic, potential, dipole, and quadrupole integrals
         stored in file 35.

      Computing two-electron integrals...done
      Computed 53501980 non-zero two-electron integrals.
        Stored in file 33.


*** tstart() called on c4-9.compute.lan
*** at Tue Feb 23 13:38:42 2021


 ============================================================================== 
 ============================================================================== 
 ============================================================================== 

                       MP2   
              Program Written by Ugur Bozkaya,
              Latest Revision June 25, 2014.

 ============================================================================== 
 ============================================================================== 
 ============================================================================== 

	RMS orbital gradient is changed to :     1.00e-07
	MAX orbital gradient is changed to :     1.00e-04
	MO spaces per irreps... 

	IRREP   FC   AOCC  BOCC  AVIR    BVIR  FV 
	==========================================
	  A1     0     3     3    74     74     0
	  A2     0     0     0    30     30     0
	  B1     0     1     1    49     49     0
	  B2     0     1     0    49     50     0
	==========================================

	Computing MP2 energy using SCF MOs (Canonical MP2)... 
	============================================================================== 
	Nuclear Repulsion Energy (a.u.)    :     4.38771136116348
	SCF Energy (a.u.)                  :   -75.42805554869729
	REF Energy (a.u.)                  :   -75.42805554869729
	Alpha-Alpha Contribution (a.u.)    :    -0.03807380616551
	Alpha-Beta Contribution (a.u.)     :    -0.20603327669675
	Beta-Beta Contribution (a.u.)      :    -0.01840705729065
	Scaled_SS Correlation Energy (a.u.):    -0.01882695448539
	Scaled_OS Correlation Energy (a.u.):    -0.24723993203610
	SCS-MP2 Total Energy (a.u.)        :   -75.69412243521877
	SOS-MP2 Total Energy (a.u.)        :   -75.42805554869729
	SCSN-MP2 Total Energy (a.u.)       :   -75.52746186838013
	SCS-MP2-VDW Total Energy (a.u.)    :   -75.72001857459722
	SOS-PI-MP2 Total Energy (a.u.)     :   -75.71650213607273
	MP2 Correlation Energy (a.u.)      :    -0.26251414015291
	MP2 Total Energy (a.u.)            :   -75.69056968885020
	============================================================================== 
	Analytic gradient computation is starting...
	Computing response density matrices...
	Computing off-diagonal blocks of GFM...
	Forming independent-pairs...
	Number of alpha independent-pairs:320
	Number of beta independent-pairs :271
	Computing orbital gradient...
	Computing diagonal blocks of GFM...
	Solving orbital Z-vector equations...
	Forming relaxed response density matrices...
	Forming relaxed GFM...
	Writing particle density matrices and GFM to disk...
	Necessary information has been sent to DERIV, which will take care of the rest.

*** tstop() called on c4-9.compute.lan at Tue Feb 23 13:39:28 2021
Module time:
	user time   =      29.72 seconds =       0.50 minutes
	system time =      14.36 seconds =       0.24 minutes
	total time  =         46 seconds =       0.77 minutes
Total time:
	user time   =     641.03 seconds =      10.68 minutes
	system time =     121.95 seconds =       2.03 minutes
	total time  =        775 seconds =      12.92 minutes
  Cartesian Displacement SALCs
  By SALC:
  Number of SALCs: 2, nirreps: A1
  Project out translations: False
  Project out rotations: False
	irrep = 0, ncomponent = 1
		0: atom 0, direction z, coef 1.000000
	irrep = 0, ncomponent = 1
		0: atom 1, direction z, coef 1.000000

  By Atomic Center:
  Number of atomic centers: 2
   Atomic Center 0:
	x component, size = 0
	y component, size = 0
	z component, size = 1
		0: salc 0, irrep 0, coef 1.000000
   Atomic Center 1:
	x component, size = 0
	y component, size = 0
	z component, size = 1
		0: salc 1, irrep 0, coef 1.000000

    Molecular point group: c2v
    Full point group: C_inf_v

    Geometry (in Bohr), charge = 0, multiplicity = 2:

       Center              X                  Y                   Z       
    ------------   -----------------  -----------------  -----------------
         O            0.000000000000     0.000000000000    -0.108073240270
         H            0.000000000000     0.000000000000     1.715200749631

	Presorting MO-basis TPDMs.
	Sorting File: MO TPDM (AA|AA) nbuckets = 1
	Sorting File: MO TPDM (AA|aa) nbuckets = 1
	Sorting File: MO TPDM (aa|aa) nbuckets = 1
	Starting first half-transformation.
	Sorting half-transformed TPDMs.
	First half integral transformation complete.


  -Nuclear Repulsion Energy 1st Derivatives:
     Atom            X                  Y                   Z
    ------   -----------------  -----------------  -----------------
       1        0.000000000000     0.000000000000     2.406501373610
       2        0.000000000000     0.000000000000    -2.406501373610


  -Core Hamiltonian Gradient:
     Atom            X                  Y                   Z
    ------   -----------------  -----------------  -----------------
       1        0.000000000000     0.000000000000    -4.840193566431
       2        0.000000000000     0.000000000000     4.840193566431


  -Lagrangian contribution to gradient:
     Atom            X                  Y                   Z
    ------   -----------------  -----------------  -----------------
       1        0.000000000000     0.000000000000     0.215821751940
       2        0.000000000000     0.000000000000    -0.215821751940


  -Two-electron contribution to gradient:
     Atom            X                  Y                   Z
    ------   -----------------  -----------------  -----------------
       1        0.000000000000     0.000000000000     2.217914259546
       2        0.000000000000     0.000000000000    -2.217914259546


  -Total gradient:
     Atom            X                  Y                   Z
    ------   -----------------  -----------------  -----------------
       1        0.000000000000     0.000000000000     0.000043818666
       2        0.000000000000     0.000000000000    -0.000043818666


			-----------------------------------------
			 OPTKING 2.0: for geometry optimizations 
			  - R.A. King,  Bethel University        
			-----------------------------------------

	Previous internal coordinate definitions found.
	---Fragment 1 Geometry and Gradient---
	 O           0.0000000000        0.0000000000       -0.1080732403
	 H           0.0000000000        0.0000000000        1.7152007496
	             0.0000000000        0.0000000000        0.0000438187
	             0.0000000000        0.0000000000       -0.0000438187

	---Fragment 1 Intrafragment Coordinates---
	 - Coordinate -           - BOHR/RAD -       - ANG/DEG -
	 R(1,2)           =         1.823274	       0.964835

	Current energy   :       -75.6905696889

	Energy change for the previous step:
		Projected    :        -0.0000001088
		Actual       :        -0.0000005611

	Performing BFGS update.
	Previous computed or guess Hessian on step 1.
	Steps to be used in Hessian update: 2 1
	Taking RFO optimization step.
	Going to follow RFO solution 1.
	Using RFO vector 1.
	Norm of target step-size    0.00008
	Projected energy change by RFO approximation:        -0.0000000003

	Back-transformation to cartesian coordinates...
	Successfully converged to displaced geometry.

	--- Internal Coordinate Step in ANG or DEG, aJ/ANG or AJ/DEG ---
	 ---------------------------------------------------------------------------
	   Coordinate                Previous        Force       Change         New 
	   ----------                --------       ------       ------       ------
	    1 R(1,2)          =      0.964835     0.000361     0.000042     0.964877
	 ---------------------------------------------------------------------------
[...]
      17A2     7.188481    48A1     7.194209    30B1     7.211393  
      31B2     7.232799    31B1     7.235728    32B2     7.586737  
      32B1     7.586763    49A1     7.707749    18A2     7.709145  
      50A1     7.817769    19A2     7.904952    51A1     7.905157  
      33B2     8.483659    33B1     8.522576    52A1     8.618350  
      53A1     8.828939    34B2     9.096006    34B1     9.141067  
      20A2     9.380834    54A1     9.381315    55A1    10.285083  
      35B2    10.444281    35B1    10.491507    56A1    12.777624  
      36B2    12.971346    36B1    12.971346    21A2    13.136090  
      57A1    13.136090    58A1    13.498998    22A2    13.499138  
      37B2    13.885682    37B1    13.885685    59A1    14.079418  
      60A1    14.127891    23A2    14.127894    38B2    14.191365  
      38B1    14.210493    39B2    14.466781    39B1    14.481030  
      61A1    14.676273    62A1    15.551656    24A2    15.652328  
      63A1    15.654439    40B2    15.945715    40B1    15.987414  
      41B2    16.211361    41B1    16.211361    25A2    16.347718  
      64A1    16.347718    42B2    16.762727    42B1    16.811113  
      43B2    16.864539    43B1    16.864547    65A1    16.907470  
      44B2    17.782879    44B1    17.815369    66A1    17.866873  
      26A2    17.870693    67A1    18.038152    45B2    18.163969  
      45B1    18.194326    68A1    18.584111    69A1    19.068572  
      27A2    19.068573    46B2    19.176886    46B1    19.176895  
      47B2    19.218543    47B1    19.218554    70A1    19.517974  
      28A2    19.577473    71A1    19.591091    29A2    19.981071  
      72A1    19.982111    48B2    20.473840    48B1    20.528481  
      73A1    21.074391    30A2    22.400180    74A1    22.400697  
      49B2    23.206786    49B1    23.257102    50B2    23.953332  
      50B1    24.000028    75A1    25.988285    76A1    26.263000  
      77A1    65.019320  

    Beta Occupied:                                                        

       1A1   -20.597753     2A1    -1.232307     3A1    -0.640218  
       1B1    -0.513962  

    Beta Virtual:                                                         

       4A1     0.024923     1B2     0.056020     5A1     0.089765  
       2B1     0.110033     6A1     0.140628     2B2     0.147821  
       3B1     0.182544     7A1     0.184223     3B2     0.190598  
       8A1     0.291489     1A2     0.405339     9A1     0.405385  
      10A1     0.425069     4B1     0.471465     4B2     0.479211  
       5B1     0.485345    11A1     0.490703     5B2     0.508577  
      12A1     0.520176     2A2     0.528909    13A1     0.529158  
       6B1     0.560318     6B2     0.578777    14A1     0.670841  
       7B1     0.978754     7B2     0.978771     8B1     0.990025  
       8B2     1.003409    15A1     1.004124    16A1     1.084886  
       9B2     1.131177     9B1     1.138688    17A1     1.148453  
       3A2     1.173206    18A1     1.173831     4A2     1.229749  
      19A1     1.229911    10B2     1.252779    10B1     1.253724  
      20A1     1.258658    11B2     1.279895    11B1     1.279898  
       5A2     1.343988    21A1     1.344484    22A1     1.402294  
      12B1     1.513238    12B2     1.533183    23A1     1.720681  
      13B1     1.907789    13B2     1.936435    24A1     2.220197  
       6A2     2.292309    25A1     2.292660    14B2     2.313100  
      14B1     2.320592    26A1     2.574372     7A2     2.574372  
      27A1     2.632488    15B2     2.656882    15B1     2.661663  
      28A1     2.720328    16B1     2.851704    16B2     2.851706  
      17B2     2.923012    17B1     2.923455    29A1     2.932986  
       8A2     2.940013    18B2     2.943369    30A1     2.948214  
      18B1     2.951175     9A2     3.065418    31A1     3.065547  
      32A1     3.126078    10A2     3.126079    33A1     3.137902  
      11A2     3.235507    34A1     3.236495    19B1     3.330700  
      19B2     3.332594    20B1     3.338211    20B2     3.338277  
      35A1     3.449423    21B2     3.550969    21B1     3.564280  
      36A1     3.652578    12A2     3.835580    37A1     3.835872  
      38A1     4.290469    22B2     4.583572    22B1     4.588839  
      23B2     4.660089    23B1     4.660096    24B1     4.793859  
      24B2     4.808313    39A1     5.056063    40A1     5.410961  
      13A2     5.410982    41A1     5.643275    25B2     5.817345  
      25B1     5.827499    14A2     5.920108    42A1     5.920119  
      26B2     6.156563    26B1     6.170292    27B2     6.197102  
      27B1     6.197102    43A1     6.240184    44A1     6.466172  
      15A2     6.466172    28B2     6.702332    28B1     6.713298  
      45A1     6.900426    46A1     7.110527    16A2     7.110744  
      47A1     7.112785    29B2     7.169527    29B1     7.170859  
      30B2     7.194015    17A2     7.199160    48A1     7.201478  
      30B1     7.216176    31B2     7.253307    31B1     7.253672  
      32B2     7.620008    32B1     7.620010    49A1     7.739532  
      18A2     7.740218    50A1     7.825476    19A2     7.946825  
      51A1     7.947377    33B2     8.505017    33B1     8.526862  
      52A1     8.637442    53A1     8.842611    34B2     9.131343  
      34B1     9.149613    20A2     9.419751    54A1     9.419847  
      55A1    10.295588    35B2    10.489009    35B1    10.501617  
      56A1    12.806850    36B2    12.971696    36B1    12.971696  
      57A1    13.136306    21A2    13.136306    58A1    13.502016  
      22A2    13.502096    37B2    13.887473    37B1    13.887474  
      59A1    14.085539    60A1    14.126654    23A2    14.126660  
      38B2    14.196736    38B1    14.210469    39B2    14.470658  
      39B1    14.481060    61A1    14.679185    62A1    15.557490  
      24A2    15.658114    63A1    15.659164    40B2    15.983165  
      40B1    15.995674    41B2    16.236571    41B1    16.236571  
      25A2    16.368430    64A1    16.368430    42B2    16.806286  
      42B1    16.821191    43B2    16.881007    43B1    16.881010  
      65A1    16.910889    44B2    17.793666    44B1    17.817282  
      66A1    17.883792    26A2    17.885619    67A1    18.046396  
      45B2    18.178426    45B1    18.197427    68A1    18.607561  
      69A1    19.107023    27A2    19.107024    46B2    19.210428  
      46B1    19.210429    47B2    19.263505    47B1    19.263506  
      70A1    19.537856    28A2    19.602557    71A1    19.607447  
      29A2    20.010560    72A1    20.010890    48B2    20.507462  
      48B1    20.538543    73A1    21.091193    30A2    22.446187  
      74A1    22.446282    49B2    23.238641    49B1    23.265533  
      50B2    23.985524    50B1    24.008963    75A1    25.996871  
      76A1    26.273284    77A1    65.034755  

    Final Occupation by Irrep:
             A1    A2    B1    B2 
    DOCC [     3,    0,    1,    0 ]
    SOCC [     0,    0,    0,    1 ]

  @UHF Final Energy:   -75.42805426219553

   => Energetics <=

    Nuclear Repulsion Energy =              4.3875107479657132
    One-Electron Energy =                -112.7137853589536007
    Two-Electron Energy =                  32.8982203487923499
    Total Energy =                        -75.4280542621955448

  UHF NO Occupations:
  HONO-2 :    2 A1 1.9992210
  HONO-1 :    3 A1 1.9978575
  HONO-0 :    1 B2 1.0000000
  LUNO+0 :    4 A1 0.0021425
  LUNO+1 :    5 A1 0.0007790
  LUNO+2 :    2 B1 0.0006274
  LUNO+3 :    6 A1 0.0000013


Computation Completed


Properties will be evaluated at   0.000000,   0.000000,   0.000000 [a0]

Properties computed using the SCF density matrix

  Nuclear Dipole Moment: [e a0]
     X:     0.0000      Y:     0.0000      Z:     0.8507

  Electronic Dipole Moment: [e a0]
     X:     0.0000      Y:     0.0000      Z:    -0.1608

  Dipole Moment: [e a0]
     X:     0.0000      Y:     0.0000      Z:     0.6899     Total:     0.6899

  Dipole Moment: [D]
     X:     0.0000      Y:     0.0000      Z:     1.7534     Total:     1.7534


*** tstop() called on c4-9.compute.lan at Tue Feb 23 13:48:40 2021
Module time:
	user time   =      30.08 seconds =       0.50 minutes
	system time =       2.21 seconds =       0.04 minutes
	total time  =         32 seconds =       0.53 minutes
Total time:
	user time   =    1114.79 seconds =      18.58 minutes
	system time =     179.25 seconds =       2.99 minutes
	total time  =       1327 seconds =      22.12 minutes
 MINTS: Wrapper to libmints.
   by Justin Turney

   Calculation information:
      Number of threads:                 1
      Number of atoms:                   2
      Number of AO shells:              47
      Number of SO shells:              47
      Number of primitives:             71
      Number of atomic orbitals:       287
      Number of basis functions:       207

      Number of irreps:                  4
      Integral cutoff                 0.00e+00
      Number of functions per irrep: [  77   30   50   50 ]

 OEINTS: Overlap, kinetic, potential, dipole, and quadrupole integrals
         stored in file 35.

      Computing two-electron integrals...done
      Computed 53502145 non-zero two-electron integrals.
        Stored in file 33.


*** tstart() called on c4-9.compute.lan
*** at Tue Feb 23 13:48:55 2021


 ============================================================================== 
 ============================================================================== 
 ============================================================================== 

                       MP2   
              Program Written by Ugur Bozkaya,
              Latest Revision June 25, 2014.

 ============================================================================== 
 ============================================================================== 
 ============================================================================== 

	RMS orbital gradient is changed to :     1.00e-07
	MAX orbital gradient is changed to :     1.00e-04
	MO spaces per irreps... 

	IRREP   FC   AOCC  BOCC  AVIR    BVIR  FV 
	==========================================
	  A1     0     3     3    74     74     0
	  A2     0     0     0    30     30     0
	  B1     0     1     1    49     49     0
	  B2     0     1     0    49     50     0
	==========================================

	Computing MP2 energy using SCF MOs (Canonical MP2)... 
	============================================================================== 
	Nuclear Repulsion Energy (a.u.)    :     4.38751074796571
	SCF Energy (a.u.)                  :   -75.42805426219553
	REF Energy (a.u.)                  :   -75.42805426219553
	Alpha-Alpha Contribution (a.u.)    :    -0.03807397993827
	Alpha-Beta Contribution (a.u.)     :    -0.20603429040674
	Beta-Beta Contribution (a.u.)      :    -0.01840715820546
	Scaled_SS Correlation Energy (a.u.):    -0.01882704604791
	Scaled_OS Correlation Energy (a.u.):    -0.24724114848809
	SCS-MP2 Total Energy (a.u.)        :   -75.69412245673153
	SOS-MP2 Total Energy (a.u.)        :   -75.42805426219553
	SCSN-MP2 Total Energy (a.u.)       :   -75.52746106532850
	SCS-MP2-VDW Total Energy (a.u.)    :   -75.72001872298803
	SOS-PI-MP2 Total Energy (a.u.)     :   -75.71650226876497
	MP2 Correlation Energy (a.u.)      :    -0.26251542855047
	MP2 Total Energy (a.u.)            :   -75.69056969074600
	============================================================================== 
	Analytic gradient computation is starting...
	Computing response density matrices...
	Computing off-diagonal blocks of GFM...
	Forming independent-pairs...
	Number of alpha independent-pairs:320
	Number of beta independent-pairs :271
	Computing orbital gradient...
	Computing diagonal blocks of GFM...
	Solving orbital Z-vector equations...
	Forming relaxed response density matrices...
	Forming relaxed GFM...
	Writing particle density matrices and GFM to disk...
	Necessary information has been sent to DERIV, which will take care of the rest.

*** tstop() called on c4-9.compute.lan at Tue Feb 23 13:49:56 2021
Module time:
	user time   =      32.51 seconds =       0.54 minutes
	system time =      26.06 seconds =       0.43 minutes
	total time  =         61 seconds =       1.02 minutes
Total time:
	user time   =    1161.92 seconds =      19.37 minutes
	system time =     206.11 seconds =       3.44 minutes
	total time  =       1403 seconds =      23.38 minutes
  Cartesian Displacement SALCs
  By SALC:
  Number of SALCs: 2, nirreps: A1
  Project out translations: False
  Project out rotations: False
	irrep = 0, ncomponent = 1
		0: atom 0, direction z, coef 1.000000
	irrep = 0, ncomponent = 1
		0: atom 1, direction z, coef 1.000000

  By Atomic Center:
  Number of atomic centers: 2
   Atomic Center 0:
	x component, size = 0
	y component, size = 0
	z component, size = 1
		0: salc 0, irrep 0, coef 1.000000
   Atomic Center 1:
	x component, size = 0
	y component, size = 0
	z component, size = 1
		0: salc 1, irrep 0, coef 1.000000

    Molecular point group: c2v
    Full point group: C_inf_v

    Geometry (in Bohr), charge = 0, multiplicity = 2:

       Center              X                  Y                   Z       
    ------------   -----------------  -----------------  -----------------
         O            0.000000000000     0.000000000000    -0.108078181778
         H            0.000000000000     0.000000000000     1.715279174944

	Presorting MO-basis TPDMs.
	Sorting File: MO TPDM (AA|AA) nbuckets = 1
	Sorting File: MO TPDM (AA|aa) nbuckets = 1
	Sorting File: MO TPDM (aa|aa) nbuckets = 1
	Starting first half-transformation.
	Sorting half-transformed TPDMs.
	First half integral transformation complete.


  -Nuclear Repulsion Energy 1st Derivatives:
     Atom            X                  Y                   Z
    ------   -----------------  -----------------  -----------------
       1        0.000000000000     0.000000000000     2.406281320439
       2        0.000000000000     0.000000000000    -2.406281320439


  -Core Hamiltonian Gradient:
     Atom            X                  Y                   Z
    ------   -----------------  -----------------  -----------------
       1        0.000000000000     0.000000000000    -4.839858051909
       2        0.000000000000     0.000000000000     4.839858051909


  -Lagrangian contribution to gradient:
     Atom            X                  Y                   Z
    ------   -----------------  -----------------  -----------------
       1        0.000000000000     0.000000000000     0.215789209465
       2        0.000000000000     0.000000000000    -0.215789209465


  -Two-electron contribution to gradient:
     Atom            X                  Y                   Z
    ------   -----------------  -----------------  -----------------
       1        0.000000000000     0.000000000000     2.217787665479
       2        0.000000000000     0.000000000000    -2.217787665479


  -Total gradient:
     Atom            X                  Y                   Z
    ------   -----------------  -----------------  -----------------
       1        0.000000000000     0.000000000000     0.000000143473
       2        0.000000000000     0.000000000000    -0.000000143474


			-----------------------------------------
			 OPTKING 2.0: for geometry optimizations 
			  - R.A. King,  Bethel University        
			-----------------------------------------

	Previous internal coordinate definitions found.
	---Fragment 1 Geometry and Gradient---
	 O           0.0000000000        0.0000000000       -0.1080781818
	 H           0.0000000000        0.0000000000        1.7152791749
	             0.0000000000        0.0000000000        0.0000001435
	             0.0000000000        0.0000000000       -0.0000001435

	---Fragment 1 Intrafragment Coordinates---
	 - Coordinate -           - BOHR/RAD -       - ANG/DEG -
	 R(1,2)           =         1.823357	       0.964879

	Current energy   :       -75.6905696907

	Energy change for the previous step:
		Projected    :        -0.0000000000
		Actual       :        -0.0000000001

	Performing BFGS update.
	Previous computed or guess Hessian on step 1.
	Denominators (dg)(dq) or (dq)(dq) are very small.
	 Skipping Hessian update for step 4.
	Denominators (dg)(dq) or (dq)(dq) are very small.
	 Skipping Hessian update for step 3.
	Steps to be used in Hessian update: 2 1
	Taking RFO optimization step.
	Going to follow RFO solution 1.
	Using RFO vector 1.
	Norm of target step-size    0.00000
	Projected energy change by RFO approximation:        -0.0000000000

	Back-transformation to cartesian coordinates...
	Successfully converged to displaced geometry.

	--- Internal Coordinate Step in ANG or DEG, aJ/ANG or AJ/DEG ---
	 ---------------------------------------------------------------------------
	   Coordinate                Previous        Force       Change         New 
	   ----------                --------       ------       ------       ------
	    1 R(1,2)          =      0.964879     0.000001     0.000000     0.964879
	 ---------------------------------------------------------------------------
	Successfully symmetrized geometry.

  ==> Convergence Check <==

  Measures of convergence in internal coordinates in au.
  Criteria marked as inactive (o), active & met (*), and active & unmet ( ).
  ---------------------------------------------------------------------------------------------
   Step     Total Energy     Delta E     MAX Force     RMS Force      MAX Disp      RMS Disp   
  ---------------------------------------------------------------------------------------------
    Convergence Criteria             o    2.00e-06 *    1.00e-06 *    6.00e-06 *    4.00e-06 *
  ---------------------------------------------------------------------------------------------
      5     -75.69056969   -5.86e-11 o    1.43e-07 *    1.43e-07 *    2.58e-07 *    2.58e-07 *  ~
  ---------------------------------------------------------------------------------------------


  **** Optimization is complete! (in 5 steps) ****

  ==> Optimization Summary <==

  Measures of convergence in internal coordinates in au.
  --------------------------------------------------------------------------------------------------------------- ~
   Step         Total Energy             Delta E       MAX Force       RMS Force        MAX Disp        RMS Disp  ~
  --------------------------------------------------------------------------------------------------------------- ~
      1     -75.690289226965    -75.690289226965      0.01782693      0.01782693      0.03062293      0.03062293  ~
      2     -75.690569127718     -0.000279900753      0.00076934      0.00076934      0.00138117      0.00138117  ~
      3     -75.690569688850     -0.000000561132      0.00004382      0.00004382      0.00007886      0.00007886  ~
      4     -75.690569690687     -0.000000001837      0.00000250      0.00000250      0.00000451      0.00000451  ~
      5     -75.690569690746     -0.000000000059      0.00000014      0.00000014      0.00000026      0.00000026  ~
  --------------------------------------------------------------------------------------------------------------- ~

	Writing optimization data to binary file.
	Final energy is    -75.6905696907460
	Final (previous) structure:
	Cartesian Geometry (in Angstrom)
	    O     0.0000000000   0.0000000000  -0.0571925105
	    H     0.0000000000   0.0000000000   0.9076866457
	Saving final (previous) structure.
			--------------------------
			 OPTKING Finished Execution 
			--------------------------

    Final optimized geometry and variables:
    Molecular point group: c2v
    Full point group: C_inf_v

    Geometry (in Angstrom), charge = 0, multiplicity = 2:

    O       
    H             1          R1

    R1        =    0.9648791601

	Removing binary optimization data file.
	Cleaning optimization helper files.

    Psi4 stopped on: Tuesday, 23 February 2021 01:53PM
    Psi4 wall time for execution: 0:26:54.23

*** Psi4 exiting successfully. Buy a developer a beer!
