 --invoking executable--
/apps/eb/cfour/2.1-iompi-2018a-serial/bin/xjoda


   *************************************************************************
         <<<     CCCCCC     CCCCCC   |||     CCCCCC     CCCCCC   >>>
       <<<      CCC        CCC       |||    CCC        CCC         >>>
      <<<      CCC        CCC        |||   CCC        CCC            >>>
    <<<        CCC        CCC        |||   CCC        CCC              >>>
      <<<      CCC        CCC        |||   CCC        CCC            >>>
       <<<      CCC        CCC       |||    CCC        CCC         >>>
         <<<     CCCCCC     CCCCCC   |||     CCCCCC     CCCCCC   >>>
   *************************************************************************

     ****************************************************************
     * CFOUR Coupled-Cluster techniques for Computational Chemistry *
     ****************************************************************
 

   Department of Chemistry                Institut fuer Physikalische Chemie
   University of Florida                  Universitaet Mainz
   Gainesville, FL 32611, USA             D-55099 Mainz, Germany

   Department of Chemistry                Fakultaet fuer Chemie und Biowiss.
   Johns Hopkins University               Karlsruher Institut fuer Technologie
   Baltimore, MD 21218, USA               D-76131 Karlsruhe, Germany

   Department of Chemistry                Department of Physical Chemistry
   Southern Methodist University          Eotvos Lorand University
   Dallas, TX 75275, USA                  H-1053 Budapest, Hungary

 
                       Version 2.1
 
                     c1-1.compute.lan                                  
                     Sun Jan 31 03:08:51 EST 2021                      
                     integer*8 version is running
 
********************************************************************************
*                          Input from ZMAT file                                *
********************************************************************************
CFOUR Optimization JOB                                                          
O   -0.965824934570    0.171629570556    0.000000000000                         
H   -0.853168845572   -0.789168531008    0.000000000000                         
O    0.965824934570   -0.171629570556    0.000000000000                         
H    0.853168845572    0.789168531008    0.000000000000                         
                                                                                
*CFOUR(CALC=CCSDT                                                               
       BASIS=AUG-PVTZ                                                           
       SCF_CONV=12                                                              
       CC_CONV=12                                                               
       SCF_MAXCYC=200                                                           
       CC_MAXCYC=150                                                            
       CC_PROGRAM=MRCC                                                          
       DERIV_LEVEL=1                                                            
       FROZEN_CORE=ON                                                           
       LINEQ_CONV=12                                                            
       OPT_MAXCYC=400                                                           
       REFERENCE=UHF                                                            
       MULTIPLICITY=3                                                           
       COORDINATES=CARTESIAN                                                    
       MEMORY=40                                                                
       MEM_UNIT=GB                                                              
       UNITS=ANGSTROM)                                                          
********************************************************************************
    -------------------------------------------------------------------
                    CFOUR Control Parameters 
    -------------------------------------------------------------------
        External           Internal           Value            Units
          Name               Name
    -------------------------------------------------------------------
       ABCDTYPE             IABCDT         STANDARD    [  0]    ***   
       ANHARMONIC           IANHAR         OFF         [  0]    ***   
       ANH_ALGORIT          IANALG         STANDARD    [  0]    ***   
       ANH_DERIVAT          IANDER         SECOND      [  1]    ***   
       ANH_MODE             ANHMOD         VIBRATION   [  0]    ***   
       ANH_STEPSIZ          ICUBST             50000          x 10-6  
       ANH_SYMMETR          IANHSM         ABELIAN     [  0]    ***   
       AO_LADDERS           IAOLAD         SINGLEPASS  [  1]    ***   
       AV_SCF               IAVSCF         OFF         [  0]    ***   
       BASIS                IBASIS         AUG-PVTZ    [ 34]    ***   
       BOTHVECTORS          BOTHVC         OFF         [  0]    ***   
       BOX_POTENT           IPIAB          OFF         [  0]    ***   
       BREIT                IBREIT         OFF         [  0]    ***   
       BRUCK_CONV           IBRTOL          10D-  4             ***   
       BRUECKNER            IBRKNR         OFF         [  0]    ***   
       BUFFERSIZE           IBUFFS              4096            ***   
       CACHE_RECS           ICHREC             10               ***   
       CALCLEVEL            ICLLVL         CCSDT       [ 18]    ***   
       CCORBOPT             ICCORB         OFF         [  0]  x 0.01  
       CC_CONV              ICCCNV          10D- 12             ***   
       CC_EXPORDER          ICCEOR              5               ***   
       CC_EXTRAPOL          ICCEXT         DIIS        [  1]    ***   
       CC_GUESS             ICCGES         MP2         [  0]    ***   
       CC_MAXCYC            ICCCYC            150              cycles 
       CC_PROGRAM           ICCPRO         MRCC        [  2]    ***   
       CHARGE               ICHRGE              0               ***   
       CHOLESKY             ICHOLE         OFF         [  0]    ***   
       CIS_CONV             ICISTL              5               ***   
       COMM_SIZE            IPSIZE            ***               ***   
       CONSTANT             ICONST         OLD         [  1]    ***   
       CONTINUUM            ICONTU         NONE        [  0]    ***   
       CONTRACTION          ICNTYP         GENERAL     [  1]    ***   
       COORDINATES          ICOORD         CARTESIAN   [  1]    ***   
       CPHF_CONVER          ICPHFT          10D- 16             ***   
       CPHF_MAXCYC          ICPHFC             64              cycles 
       CUBIC                ICUBIC         OFF         [  0]    ***   
       CURVILINEAR          ICURVY         OFF         [  0]    ***   
       DBOC                 IDBOC          OFF         [  0]    ***   
       DCT                  IDCT           OFF         [  0]    ***   
       DERIV_LEV            IDRLVL         FIRST       [  1]    ***   
       DEVMEM_SIZE          IDVMEM         *********           MByte  
       DIAG_MRCC            IEOMST          10D-  0             ***   
       DIFF_TYPE            IDIFTY         RELAXED     [  0]    ***   
       DIRECT               IDIRCT         OFF         [  0]    ***   
       DROPMO               IDRPMO      NONE         
       ECP                  IECP           OFF         [  0]    ***   
       EIGENVECTOR          IVEC                1               ***   
       EL_ANHARM            IELANH         OFF         [  0]    ***   
       EOMFOLLOW            IEOMSR         ENERGY      [  0]    ***   
       EOMIP                IEOMIP         OFF         [  0]    ***   
       EOMLEVEL             HBARFM         SAME        [  0]    ***   
       EOM_MRCC             IMRCCE         NEW         [  1]    ***   
       EOM_NONIT            EOMNON         OFF         [  0]    ***   
       EOM_NSING            IEOMSI          10D-  0             ***   
       EOM_NSTATES          IMRCCD         DAVIDSON    [  0]    ***   
       EOM_NTRIP            IEOMTR          10D-  0             ***   
       EOM_ORDER            IEXORD         ENERGY      [  0]    ***   
       EOM_PROPSTA          IEOMST              0               ***   
       ESTATE_CONV          IEXTOL          10D-  5             ***   
       ESTATE_DIAG          IEXDIG         ITERATIVE   [  0]    ***   
       ESTATE_LOCK          IESLOC         ON          [  1]    ***   
       ESTATE_MAXC          IEXMXC             40               ***   
       ESTATE_PROP          IEXPRP         OFF         [  0]    ***   
       EVAL_HESS            IRECAL              0            # of cyc.
       EXCITATION           IEXCIT              0               ***   
       EXCITE               IEXCIT         NONE        [  0]    ***   
       EXTERN_POT           IEXPOT         OFF         [  0]    ***   
       FCGRADNEW            IFCGNW         OFF         [  0]    ***   
       FC_FIELD             IFINFC              0             x 10-6  
       FD_CALTYPE           IFDCAL         GRADONLY    [  0]    ***   
       FD_PROJECT           IFDPRJ         OFF         [  1]    ***   
       FD_STEPSIZE          IDISFD              0            10-4 bohr
       FD_USEGROUP          IFDGRP         FULL        [  0]    ***   
       FILE_RECSIZ          IFLREC              4096           words  
       FINITE_PERT          IFIPER              0             x 10-6  
       FIXGEOM              IFIXGM         OFF         [  0]    ***   
       FOCK                 IFOCK          AO          [  1]    ***   
       FREQ_ALGORI          IVIALG         STANDARD    [  0]    ***   
       FROZEN_CORE          IFROCO         ON          [  1]    ***   
       GAMMA_ABCD           IGABCD         STORE       [  0]    ***   
       GAMMA_ABCI           IGABCI         STORE       [  0]    ***   
       GENBAS_1             IGNBS1              0               ***   
       GENBAS_2             IGNBS2              0               ***   
       GENBAS_3             IGNBS3              0               ***   
       GENBAS_4             IGNBS4              0               ***   
       GEO_CONV             ICONTL              5              H/bohr 
       GEO_MAXCYC           IOPTCY            400               ***   
       GEO_MAXSTEP          IMXSTP            300            millibohr
       GEO_METHOD           INR            SINGLE_POINT[  5]    ***   
       GIAO                 IGIAO          OFF         [  1]    ***   
       GIMIC                IGIMIC         OFF         [  0]    ***   
       GRID                 IGRID          OFF         [  0]    ***   
       GRID_ALGO            IGALGO         SERIAL      [  0]    ***   
       GUESS                IGUESS         MOREAD      [  0]    ***   
       HBAR                 IHBAR          OFF         [  0]    ***   
       HESS_TYPE            IHESTP         SCF         [  0]    ***   
       HF2_FILE             IHF2Fl         USE         [  1]    ***   
       HFSTABILITY          ISTABL         OFF         [  0]    ***   
       INCORE               INCORE         OFF         [  0]    ***   
       INPUT_MRCC           IMRCC          ON          [  1]    ***   
       INTEGRALS            INTTYP         VMOL        [  1]    ***   
       JODA_PRINT           IJPRNT              0               ***   
       KEYWORD_OUT          IDMPKW         NO          [  0]    ***   
       LINDEP_TOL           ILINDP              8               ***   
       LINEQ_CONV           IZTACN          10D- 12           cycles  
       LINEQ_EXPOR          ILMAXD              5               ***   
       LINEQ_MAXCY          ILMAXC            100               ***   
       LINEQ_TYPE           ILTYPE         DIIS        [  1]    ***   
       LOCK_ORBOCC          ILOCOC         OFF         [  0]    ***   
       MEMORY_SIZE          IMEMSZ         *********           words  
       MEM_UNIT             IMEMU          GB          [  3]    ***   
       MRCC                 IMRCCC         OFF         [  0]    ***   
       MULTIPLICTY          IMULTP              3               ***   
       NACOUPLING           IVCOUP         OFF         [  0]    ***   
       NEGEVAL              IDIE           ABORT       [  0]    ***   
       NEWNORM              INEWNO         OFF         [  0]    ***   
       NON-HF               INONHF         OFF         [  0]    ***   
       NTOP_TAMP            ITOPT2             15               ***   
       NUC_MODEL            INUCMO         POINT       [  0]    ***   
       OCCUPATION           IOCCU   ESTIMATED BY SCF 
       OPEN-SHELL           IOPEN          SPIN-ORBITAL[  0]    ***   
       OPTVIB               IOPTVB         OFF         [  0]    ***   
       ORBITALS             IORBTP         STANDARD    [  0]    ***   
       PARALLEL             IPARAL         ON          [  1]    ***   
       PARA_INT             IPINTS         ON          [  1]    ***   
       PARA_PRINT           IPPRIN              0               ***   
       PERT_ORB             IPTORB         CANONICAL   [  1]    ***   
       POINTS               IGRDFD              0               ***   
       PRINT                IPRNT               0               ***   
       PROPS                IPROPS         OFF         [  0]    ***   
       PROP_INTEGR          IINTYP         INTERNAL    [  0]    ***   
       PSI                  IPSI           OFF         [  0]    ***   
       QC_ALG               IQCALG         FLM         [  0]    ***   
       QC_LINALG            IQCLIN         TRIDIAG     [  2]    ***   
       QC_MAXCYC            IQCMAX          10D-100           cycles  
       QC_MAXSCFCY          IQCMSC          10D- 15           cycles  
       QC_RTRUST            IQCRTR          10D-  0           x 10-3  
       QC_SKIPSCF           IQCSKI         OFF         [  0]    ***   
       QC_START             IQCSTA          10D-  1             ***   
       QRHFGUESS            IQGUES         OFF         [  0]    ***   
       QUARTIC              IQUART         OFF         [  0]    ***   
       RAMAN_INT            IRAMIN         OFF         [  0]    ***   
       RAMAN_ORB            IRAMRE         UNRELAXED   [  0]    ***   
       RDO                  IRDOFM         ON          [  1]    ***   
       REDUCE_REPR          REDREP         Ir          [  0]    ***   
       REFERENCE            IREFNC         UHF         [  1]    ***   
       RELATIVIST           IRELAT         OFF         [  0]    ***   
       RELAX_DENS           IRDENS         ON          [  1]    ***   
       RESET_FLAGS          IRESET         OFF         [  0]    ***   
       RESTART_CC           ICCRES         OFF         [  0]    ***   
       ROT_EVEC             ROTVEC              0               ***   
       SAVE_INTS            ISVINT         OFF         [  0]    ***   
       SCALE_ON             ISTCRT              0               ***   
       SCF_CONV             ISCFCV          10D- 12             ***   
       SCF_DAMPING          IDAMP               0             x 10-3  
       SCF_EXPORDE          IRPPOR              6               ***   
       SCF_EXPSTAR          IRPPLS              8               ***   
       SCF_EXTRAPO          IRPP           ON          [  1]    ***   
       SCF_MAXCYC           ISCFCY            200              cycles 
       SCF_NOSTOP           ISCFST         OFF         [  0]    ***   
       SCF_PRINT            ISCFPR              0               ***   
       SCF_PROG             ISCFPR         SCF         [  0]    ***   
       SD_FIELD             IFINSD              0             x 10-6  
       SOPERT               IPERSO         OFF         [  0]    ***   
       SPHERICAL            IDFGHI         ON          [  1]    ***   
       SPINORBIT            ISOCAL         OFF         [  0]    ***   
       SPINROTATIO          ISRCON         OFF         [  0]    ***   
       SPIN_FLIP            ISPFLP         OFF         [  0]    ***   
       SPIN_ORBIT           ISPORB         OFF         [  0]    ***   
       SPIN_SCAL            ISCSMP         OFF         [  0]    ***   
       STEEPSCALE           ISTPSC              1000          x 10-3  
       SUBGROUP             ISUBGP         DEFAULT     [  0]    ***   
       SUBGRPAXIS           ISBXYZ         X           [  0]    ***   
       SYMMETRY             ISYM           ON          [  0]    ***   
       SYM_CHECK            ISYMCK         OVERRIDE    [  1]    ***   
       T3_EXTRAPOL          IT3EXT         OFF         [  0]    ***   
       T4_EXTRAPOL          IT4EXP         OFF         [  0]    ***   
       TAMP_SUM             IEVERY              5               ***   
       TESTSUITE            ITESTS         OFF         [  0]    ***   
       THERMOCH             ITHERM         OFF         [  0]    ***   
       TOL_CHOLESK          ITOLCH          10D-  4             ***   
       TRANGRAD             IRESRM         OFF         [  0]    ***   
       TRANS_INV            ITRAIN         USE         [  0]    ***   
       TREAT_PERT           ITREAT         SIMULTANEOUS[  0]    ***   
       TRIP_ALGORI          ITRALG         NORMAL      [  0]    ***   
       UIJ_THRESHO          IUIJTH              1               ***   
       UNITS                IUNITS         ANGSTROM    [  0]    ***   
       UNOS                 IUNOS          OFF         [  0]    ***   
       UPDATE_HESS          IHUPDT         ON          [  1]    ***   
       VIBPHASE             ISETPH         STANDARD    [  0]    ***   
       VIBRATION            IVIB           NO          [  0]    ***   
       VIB_ALGORIT          IGEALG         STANDARD    [  0]    ***   
       VNATORB              IVNORB         OFF         [  0]    ***   
       VTRAN                IVTRAN         FULL/PARTIAL[  0]    ***   
       XFIELD               IXEFLD              0             x 10-6  
       XFORM_TOL            IXFTOL          10D- 11             ***   
       YFIELD               IYEFLD              0             x 10-6  
       ZFIELD               IZEFLD              0             x 10-6  
       ZSCALE_EXP           IZEXPS         OFF         [  0]    ***   
    -------------------------------------------------------------------
  @GETXYZ-I,     4 atoms read from ZMAT.
   Rotational constants (in cm-1): 
          0.5031302190             0.5295615570            10.0803986005
   Rotational constants (in MHz): 
      15083.4666187944         15875.8583072517        302202.7897444559
********************************************************************************
   The full molecular point group is C2h .
   The largest Abelian subgroup of the full molecular point group is C2h .
   The computational point group is C2h .
********************************************************************************


 ----------------------------------------------------------------
         Coordinates used in calculation (QCOMP) 
 ----------------------------------------------------------------
 Z-matrix   Atomic            Coordinates (in bohr)
  Symbol    Number           X              Y              Z
 ----------------------------------------------------------------
     O         8        -1.85198431     0.08062396     0.00000000
     H         1        -1.40133879    -1.69104462     0.00000000
     O         8         1.85198431    -0.08062396     0.00000000
     H         1         1.40133879     1.69104462     0.00000000
 ----------------------------------------------------------------
 
   Interatomic distance matrix (Angstroms) 
 
                 O             H             O             H    
                [ 1]        [ 2]        [ 3]        [ 4]
  O    [ 1]     0.00000
  H    [ 2]     0.96738     0.00000
  O    [ 3]     1.96191     1.92096     0.00000
  H    [ 4]     1.92096     2.32438     0.96738     0.00000
 rotcon2
   Rotational constants (in cm-1): 
         10.0803986005             0.5295615570             0.5031302190
   Rotational constants (in MHz): 
     302202.7897444565         15875.8583072517         15083.4666187944
  There are   2 frozen-core orbitals.
  There are   2 frozen-core orbitals.
  There are  138 basis functions.
 @CHECKOUT-I, Total execution time (CPU/WALL):        0.17/       0.22 seconds.
--executable xjoda finished with status     0 in        0.24 seconds (walltime).
 --invoking executable--
/apps/eb/cfour/2.1-iompi-2018a-serial/bin/xvmol
 SERIAL VERSION OF MOLECULE STARTED
********************************************************************************
                    INPUT FROM MOL FILE
********************************************************************************
INTGRL        1    0    1    0    0    0    0    0    0                         
         *** CFOUR Program System (Release V0.1) ***                            
CFOUR Optimization JOB                                                          
    2    2 Z  XY      0.10E-08              0    0                              
   9999.00      3.00                                                            
          8.00000000    1    4    1    1    1    1                              
O #1  -1.851984310537449   0.080623959779427   0.000000000000000                
   11    5                                                                      
   15330.0000000000       5.080000000000000E-004 -1.150000000000000E-004        
  0.000000000000000E+000  0.000000000000000E+000  0.000000000000000E+000        
   2299.00000000000       3.929000000000000E-003 -8.950000000000000E-004        
  0.000000000000000E+000  0.000000000000000E+000  0.000000000000000E+000        
   522.400000000000       2.024300000000000E-002 -4.636000000000000E-003        
  0.000000000000000E+000  0.000000000000000E+000  0.000000000000000E+000        
   147.300000000000       7.918100000000000E-002 -1.872400000000000E-002        
  0.000000000000000E+000  0.000000000000000E+000  0.000000000000000E+000        
   47.5500000000000       0.230687000000000      -5.846300000000000E-002        
  0.000000000000000E+000  0.000000000000000E+000  0.000000000000000E+000        
   16.7600000000000       0.433118000000000      -0.136463000000000             
  0.000000000000000E+000  0.000000000000000E+000  0.000000000000000E+000        
   6.20700000000000       0.350260000000000      -0.175740000000000             
  0.000000000000000E+000  0.000000000000000E+000  0.000000000000000E+000        
   1.75200000000000       4.272800000000000E-002  0.160934000000000             
   1.00000000000000       0.000000000000000E+000  0.000000000000000E+000        
  0.688200000000000      -8.154000000000000E-003  0.603418000000000             
  0.000000000000000E+000  0.000000000000000E+000  0.000000000000000E+000        
  0.238400000000000       2.381000000000000E-003  0.378765000000000             
  0.000000000000000E+000   1.00000000000000       0.000000000000000E+000        
  7.376000000000001E-002  0.000000000000000E+000  0.000000000000000E+000        
  0.000000000000000E+000  0.000000000000000E+000   1.00000000000000             
    6    4                                                                      
   34.4600000000000       1.592800000000000E-002  0.000000000000000E+000        
  0.000000000000000E+000  0.000000000000000E+000                                
   7.74900000000000       9.974000000000000E-002  0.000000000000000E+000        
  0.000000000000000E+000  0.000000000000000E+000                                
   2.28000000000000       0.310492000000000       0.000000000000000E+000        
  0.000000000000000E+000  0.000000000000000E+000                                
  0.715600000000000       0.491026000000000        1.00000000000000             
  0.000000000000000E+000  0.000000000000000E+000                                
  0.214000000000000       0.336337000000000       0.000000000000000E+000        
   1.00000000000000       0.000000000000000E+000                                
  5.974000000000000E-002  0.000000000000000E+000  0.000000000000000E+000        
  0.000000000000000E+000   1.00000000000000                                     
    3    3                                                                      
   2.31400000000000        1.00000000000000       0.000000000000000E+000        
  0.000000000000000E+000                                                        
  0.645000000000000       0.000000000000000E+000   1.00000000000000             
  0.000000000000000E+000                                                        
  0.214000000000000       0.000000000000000E+000  0.000000000000000E+000        
   1.00000000000000                                                             
    2    2                                                                      
   1.42800000000000        1.00000000000000       0.000000000000000E+000        
  0.500000000000000       0.000000000000000E+000   1.00000000000000             
          1.00000000    1    3    1    1    1                                   
H #2  -1.401338790639107  -1.691044622568425   0.000000000000000                
    6    4                                                                      
   33.8700000000000       6.068000000000000E-003  0.000000000000000E+000        
  0.000000000000000E+000  0.000000000000000E+000                                
   5.09500000000000       4.530800000000000E-002  0.000000000000000E+000        
  0.000000000000000E+000  0.000000000000000E+000                                
   1.15900000000000       0.202822000000000       0.000000000000000E+000        
  0.000000000000000E+000  0.000000000000000E+000                                
  0.325800000000000       0.503903000000000        1.00000000000000             
  0.000000000000000E+000  0.000000000000000E+000                                
  0.102700000000000       0.383421000000000       0.000000000000000E+000        
   1.00000000000000       0.000000000000000E+000                                
  2.526000000000000E-002  0.000000000000000E+000  0.000000000000000E+000        
  0.000000000000000E+000   1.00000000000000                                     
    3    3                                                                      
   1.40700000000000        1.00000000000000       0.000000000000000E+000        
  0.000000000000000E+000                                                        
  0.388000000000000       0.000000000000000E+000   1.00000000000000             
  0.000000000000000E+000                                                        
  0.102000000000000       0.000000000000000E+000  0.000000000000000E+000        
   1.00000000000000                                                             
    2    2                                                                      
   1.05700000000000        1.00000000000000       0.000000000000000E+000        
  0.247000000000000       0.000000000000000E+000   1.00000000000000             
FINISH                                                                          
 
********************************************************************************
 ONE- AND TWO-ELECTRON INTEGRALS OVER SYMMETRY-ADAPTED AOS ARE CALCULATED.

  SPHERICAL HARMONICS ARE USED.
  
  INTEGRALS LESS THAN  0.10E-13 ARE NEGLECTED.

  NUCLEAR REPULSION ENERGY :   30.6500132991 A.U.
  @MOLECU-I, ONE ELECTRON INTEGRALS (CPU/WALL):        0.03/       0.03 SECONDS.
  @TWOEL-I,    1246094 INTEGRALS OF SYMMETRY TYPE  I I I I
  @TWOEL-I,    4620815 INTEGRALS OF SYMMETRY TYPE  I J I J
  @TWOEL-I,    2438161 INTEGRALS OF SYMMETRY TYPE  I I J J
  @TWOEL-I,    3358092 INTEGRALS OF SYMMETRY TYPE  I J K L
  @TWOEL-I, TOTAL NUMBER OF 2-E INTEGRALS   11663162.
  @MOLECU-I, TWO ELECTRON INTEGRALS (CPU/WALL):        2.81/       2.98 SECONDS.
 @CHECKOUT-I, Total execution time (CPU/WALL):        2.85/       3.02 seconds.

Running with 12 threads/proc

--executable xvmol finished with status     0 in        3.06 seconds (walltime).
 --invoking executable--
/apps/eb/cfour/2.1-iompi-2018a-serial/bin/xvmol2ja
 @GETMEM-I,  Allocated   38146 MB of main memory.
 @CHECKOUT-I, Total execution time (CPU/WALL):        0.01/       0.01 seconds.
--executable xvmol2ja finished with status     0 in        0.06 seconds (walltime).
 --invoking executable--
/apps/eb/cfour/2.1-iompi-2018a-serial/bin/xvscf
  There are  138 functions in the AO basis.

  There are 4 irreducible representations.

       Irrep        # of functions
         1                 46
         2                 23
         3                 46
         4                 23


  Parameters for SCF calculation: 
        SCF reference function:  UHF  
  Maximum number of iterations:  200
     Full symmetry point group: C2h 
     Computational point group: C2h 
        Initial density matrix: CORE                   
     SCF convergence tolerance: 10**(-12)
  DIIS convergence acceleration:  ON
          Latest start for DIIS:   8
                     DIIS order:   6

  Memory information:     904766 words required.
  Fock matrices are constructed from AO integral file.
 @GETMEM-I,  Allocated       6 MB of main memory.
  Initialization and symmetry analysis required      0.002 seconds.

  @INITGES-I, Occupancies from core Hamiltonian:

          Alpha population by irrep:   4    1    4    1
           Beta population by irrep:   3    1    3    1


 total no. of electrons in initial guess :  0.000000000000000E+000
 total no. of electrons in initial guess :  0.000000000000000E+000
  --------------------------------------------------------------------
  Iteration         Total Energy            Largest Density Difference
  --------------------------------------------------------------------
       0            30.650013299124108              0.0000000000D+00
   current occupation vector 
     4  1  4  1
     3  1  3  1
       1          -128.446663787539535              0.3025755377D+01
   current occupation vector 
     4  1  4  1
     3  1  3  1
       2          -128.428303868578467              0.2132561826D+02
   current occupation vector 
     5  1  4  0
     3  1  4  0
       3          -144.534047459001727              0.2134576066D+02
   current occupation vector 
     4  1  4  1
     3  1  3  1
       4          -139.869452798565732              0.6388699121D+01
   current occupation vector 
     5  1  4  0
     3  1  4  0
       5          -147.357081842003396              0.6387570097D+01
   current occupation vector 
     4  1  4  1
     3  1  3  1
       6          -145.938076170671081              0.5759462591D+01
   current occupation vector 
     5  1  4  0
     4  1  3  0
       7          -149.175287832004670              0.5759266004D+01
   current occupation vector 
     4  1  4  1
     3  1  3  1
       8          -150.213134308083141              0.6034166464D+00
   current occupation vector 
     4  1  4  1
     3  1  3  1
       9          -150.786364174991917              0.2613708787D+00
   current occupation vector 
     4  1  4  1
     3  1  3  1
      10          -150.792973798936885              0.2820582104D-01
   current occupation vector 
     4  1  4  1
     3  1  3  1
      11          -150.796753641136632              0.1698993885D-01
   current occupation vector 
     4  1  4  1
     3  1  3  1
      12          -150.801006129878544              0.3457216193D-01
   current occupation vector 
     4  1  4  1
     3  1  3  1
      13          -150.801625353291143              0.1392899481D-01
   current occupation vector 
     4  1  4  1
     3  1  3  1
      14          -150.801674458118612              0.4041833407D-02
   current occupation vector 
     4  1  4  1
     3  1  3  1
      15          -150.801676606357802              0.6125594557D-03
   current occupation vector 
     4  1  4  1
     3  1  3  1
      16          -150.801676768297426              0.1013084823D-03
   current occupation vector 
     4  1  4  1
     3  1  3  1
      17          -150.801676788955803              0.3922515234D-04
   current occupation vector 
     4  1  4  1
     3  1  3  1
      18          -150.801676790330191              0.9171758180D-05
   current occupation vector 
     4  1  4  1
     3  1  3  1
      19          -150.801676790644876              0.4497967228D-05
   current occupation vector 
     4  1  4  1
     3  1  3  1
      20          -150.801676790724855              0.2807749830D-05
   current occupation vector 
     4  1  4  1
     3  1  3  1
      21          -150.801676790760411              0.2548699263D-05
   current occupation vector 
     4  1  4  1
     3  1  3  1
      22          -150.801676790770500              0.1588274742D-05
   current occupation vector 
     4  1  4  1
     3  1  3  1
      23          -150.801676790771580              0.9174840081D-06
   current occupation vector 
     4  1  4  1
     3  1  3  1
      24          -150.801676790771722              0.1819281766D-06
   current occupation vector 
     4  1  4  1
     3  1  3  1
      25          -150.801676790770188              0.2502658298D-06
   current occupation vector 
     4  1  4  1
     3  1  3  1
      26          -150.801676790769790              0.2035408060D-06
   current occupation vector 
     4  1  4  1
     3  1  3  1
      27          -150.801676790770671              0.6151965565D-07
   current occupation vector 
     4  1  4  1
     3  1  3  1
      28          -150.801676790770472              0.2650150227D-07
   current occupation vector 
     4  1  4  1
     3  1  3  1
      29          -150.801676790769847              0.1071932038D-07
   current occupation vector 
     4  1  4  1
     3  1  3  1
      30          -150.801676790770870              0.6153342280D-09
   current occupation vector 
     4  1  4  1
     3  1  3  1
      31          -150.801676790769619              0.1049368092D-09
   current occupation vector 
     4  1  4  1
     3  1  3  1
      32          -150.801676790770927              0.5274120030D-10
   current occupation vector 
     4  1  4  1
     3  1  3  1
      33          -150.801676790771808              0.8998912726D-11
   current occupation vector 
     4  1  4  1
     3  1  3  1
      34          -150.801676790770784              0.8838485499D-11
   current occupation vector 
     4  1  4  1
     3  1  3  1
      35          -150.801676790770586              0.4687916721D-11
   current occupation vector 
     4  1  4  1
     3  1  3  1
      36          -150.801676790771666              0.6081191106D-11
   current occupation vector 
     4  1  4  1
     3  1  3  1
      37          -150.801676790771467              0.2733771542D-11
   current occupation vector 
     4  1  4  1
     3  1  3  1
      38          -150.801676790771609              0.7117140211D-11
   current occupation vector 
     4  1  4  1
     3  1  3  1
      39          -150.801676790770841              0.3524590342D-11
   current occupation vector 
     4  1  4  1
     3  1  3  1
      40          -150.801676790771523              0.4951247745D-11
   current occupation vector 
     4  1  4  1
     3  1  3  1
      41          -150.801676790770699              0.1683396478D-11
   current occupation vector 
     4  1  4  1
     3  1  3  1
      42          -150.801676790771523              0.1638699593D-11
   current occupation vector 
     4  1  4  1
     3  1  3  1
      43          -150.801676790770699              0.1987084108D-11
   current occupation vector 
     4  1  4  1
     3  1  3  1
      44          -150.801676790771182              0.1116284148D-11
   current occupation vector 
     4  1  4  1
     3  1  3  1

  SCF has converged.

 Density matrix saved to file den.dat
 total alpha spin electron number:   9.99999999999999     
 total  beta spin electron number:   7.99999999999999     
     E(SCF)=      -150.801676790769932              0.9503509091D-12

  Eigenvector printing suppressed.


       The average multiplicity is    3.0105270
  The expectation value of S**2 is    2.0158182

 @PUTMOS-I, Writing converged MOs to NEWMOS. 
 @PUTMOS-I, Symmetry   1 Full Blocks 11 Partial Blocksize   2
 @PUTMOS-I, Symmetry   2 Full Blocks  5 Partial Blocksize   3
 @PUTMOS-I, Symmetry   3 Full Blocks 11 Partial Blocksize   2
 @PUTMOS-I, Symmetry   4 Full Blocks  5 Partial Blocksize   3
 @PUTFOCK-I, Writing converged Fock matrix to NEWFOCK. 
 @PUTFOCK-I, Symmetry   1 Full Blocks 11 Partial Blocksize   2
 @PUTFOCK-I, Symmetry   2 Full Blocks  5 Partial Blocksize   3
 @PUTFOCK-I, Symmetry   3 Full Blocks 11 Partial Blocksize   2
 @PUTFOCK-I, Symmetry   4 Full Blocks  5 Partial Blocksize   3


 
  ORBITAL EIGENVALUES (ALPHA)  (1H = 27.2113834 eV)

       MO #        E(hartree)               E(eV)           FULLSYM    COMPSYM
       ----   --------------------   --------------------   -------   ---------
    1    70         -20.6313435470        -561.4073993138      Bu        Bu (3)
    2     1         -20.6312994970        -561.4062006543      Ag        Ag (1)
    3     2          -1.4454533709         -39.3327858633      Ag        Ag (1)
    4    71          -1.3597976829         -37.0019760956      Bu        Bu (3)
    5     3          -0.7490899918         -20.3837749685      Ag        Ag (1)
    6    72          -0.7251530114         -19.7324166170      Bu        Bu (3)
    7     4          -0.6545167231         -17.8103054945      Ag        Ag (1)
    8    47          -0.5937750445         -16.1574403880      Au        Au (2)
    9    73          -0.5769283984         -15.6990198440      Bu        Bu (3)
   10   116          -0.5370611564         -14.6141770362      Bg        Bg (4)
  +++++++++++++++++++++++++++++++++++++++++++++++++++++++++++++++++++++++++++++
   11     5           0.0334130140           0.9092143344      Ag        Ag (1)
   12    74           0.0454470590           1.2366773467      Bu        Bu (3)
   13    75           0.1177012392           3.2028135452      Bu        Bu (3)
   14    48           0.1486983806           4.0462886444      Au        Au (2)
   15     6           0.1511295352           4.1124437249      Ag        Ag (1)
   16     7           0.1607664607           4.3746777992      Ag        Ag (1)
   17    76           0.1777295627           4.8362672732      Bu        Bu (3)
   18     8           0.1924286128           5.2362487603      Ag        Ag (1)
   19   117           0.1998718327           5.4387890712      Bg        Bg (4)
   20   118           0.2560586715           6.9677106834      Bg        Bg (4)
   21     9           0.2699251379           7.3450364159      Ag        Ag (1)
   22    77           0.2759541216           7.5090934034      Bu        Bu (3)
   23    78           0.3103709095           8.4456218138      Bu        Bu (3)
   24    49           0.3416293516           9.2962072673      Au        Au (2)
   25    79           0.3562935730           9.6952410188      Bu        Bu (3)
   26    10           0.4068926151          11.0721109534      Ag        Ag (1)
   27    11           0.4400305742          11.9738406632      Ag        Ag (1)
   28    80           0.4462025927          12.1417898227      Bu        Bu (3)
   29    81           0.6437674973          17.5178041898      Bu        Bu (3)
   30    50           0.6512090139          17.7202981511      Au        Au (2)
   31    12           0.6566733351          17.8689898891      Ag        Ag (1)
   32   119           0.6857291592          18.6596390591      Bg        Bg (4)
   33    82           0.7055007833          19.1976523024      Bu        Bu (3)
   34    51           0.7501926526          20.4137798938      Au        Au (2)
   35    83           0.7672155157          20.8769955471      Bu        Bu (3)
   36    13           0.7864029234          21.3991114560      Ag        Ag (1)
   37    14           0.8374369563          22.7878180910      Ag        Ag (1)
   38   120           0.8439385171          22.9647345536      Bg        Bg (4)
   39    84           0.8542309504          23.2448059032      Bu        Bu (3)
   40    52           0.8979607854          24.4347552104      Au        Au (2)
   41    15           0.9034774987          24.5848726094      Ag        Ag (1)
   42   121           0.9487213520          25.8160204489      Bg        Bg (4)
   43    16           0.9590271756          26.0964561658      Ag        Ag (1)
   44    53           0.9656643470          26.2770627806      Au        Au (2)
   45    85           0.9793539633          26.6495761803      Bu        Bu (3)
   46    17           0.9947400742          27.0682535416      Ag        Ag (1)
   47   122           1.0004308332          27.2231069667      Bg        Bg (4)
   48    18           1.0224944626          27.8234888461      Ag        Ag (1)
   49    86           1.0333929198          28.1200509434      Bu        Bu (3)
   50    19           1.1681969783          31.7882558636      Ag        Ag (1)
   51    87           1.1779638550          32.0540260906      Bu        Bu (3)
   52   123           1.1802026365          32.1149464319      Bg        Bg (4)
   53    88           1.2165226155          33.1032633052      Bu        Bu (3)
   54    54           1.2678235842          34.4992336330      Au        Au (2)
   55    89           1.3723697652          37.3440798481      Bu        Bu (3)
   56    20           1.4089552699          38.3396220418      Ag        Ag (1)
   57    90           1.4876359713          40.4806327759      Bu        Bu (3)
   58   124           1.4990638212          40.7916003791      Bg        Bg (4)
   59    55           1.5456555624          42.0594261119      Au        Au (2)
   60    21           1.5939635998          43.3739546401      Ag        Ag (1)
   61    22           1.8081133827          49.2012664886      Ag        Ag (1)
   62    56           1.8684306975          50.8425840661      Au        Au (2)
   63    91           1.9192403978          52.2251863012      Bu        Bu (3)
   64    23           2.0213520085          55.0037844909      Ag        Ag (1)
   65    24           2.0532405368          55.8715154585      Ag        Ag (1)
   66    92           2.1636990158          58.8772434802      Bu        Bu (3)
   67    25           2.2105655735          60.1525473521      Ag        Ag (1)
   68   125           2.2126055239          60.2080572246      Bg        Bg (4)
   69    57           2.2363519582          60.8542305525      Au        Au (2)
   70    93           2.2403651658          60.9634354819      Bu        Bu (3)
   71   126           2.2833301534          62.1325722334      Bg        Bg (4)
   72    58           2.3357475850          63.5589230623      Au        Au (2)
   73    94           2.3486021968          63.9087148316      Bu        Bu (3)
   74   127           2.3665416502          64.3968721767      Bg        Bg (4)
   75    59           2.3998199987          65.3024220748      Au        Au (2)
   76    26           2.4214147173          65.8900442440      Ag        Ag (1)
   77    95           2.4248239048          65.9828129518      Bu        Bu (3)
   78    27           2.5034478593          68.1222795203      Ag        Ag (1)
   79    96           2.5073865361          68.2294563647      Bu        Bu (3)
   80    28           2.5994416530          70.7344034449      Ag        Ag (1)
   81    97           2.6297935363          71.5603201787      Bu        Bu (3)
   82    29           2.7186856161          73.9791966433      Ag        Ag (1)
   83    98           2.7445906588          74.6841086917      Bu        Bu (3)
   84   128           2.7553105039          74.9758105079      Bg        Bg (4)
   85    60           2.8114516490          76.5034887310      Au        Au (2)
   86   129           2.8612761868          77.8592833322      Bg        Bg (4)
   87    30           2.9680927710          80.7659103587      Ag        Ag (1)
   88    99           3.3672198160          91.6267094061      Bu        Bu (3)
   89    31           3.6138867103          98.3388568372      Ag        Ag (1)
   90   100           3.7527306385         102.1169922008      Bu        Bu (3)
   91    61           4.0675371591         110.6833131309      Au        Au (2)
   92    62           4.1143882313         111.9581956175      Au        Au (2)
   93   130           4.1311672622         112.4147762607      Bg        Bg (4)
   94    32           4.1476606334         112.8635837072      Ag        Ag (1)
   95   131           4.1795202304         113.7305274170      Bg        Bg (4)
   96   101           4.2548889187         115.7814136913      Bu        Bu (3)
   97   132           4.3387870680         118.0643983996      Bg        Bg (4)
   98    63           4.3670086044         118.8323454462      Au        Au (2)
   99   102           4.3839298427         119.2927957493      Bu        Bu (3)
  100    33           4.4976427962         122.3870825231      Ag        Ag (1)
  101   103           4.5925910970         124.9707571398      Bu        Bu (3)
  102    34           4.6696745716         127.0683051203      Ag        Ag (1)
  103   104           4.7531670315         129.3402504577      Bu        Bu (3)
  104    35           4.9278335131         134.0931670570      Ag        Ag (1)
  105   105           5.1769532944         140.8720609384      Bu        Bu (3)
  106    36           5.1841041218         141.0666448433      Ag        Ag (1)
  107    64           5.2936247029         144.0468513655      Au        Au (2)
  108    37           5.3207889641         144.7860284921      Ag        Ag (1)
  109   133           5.3314917984         145.0772674214      Bg        Bg (4)
  110   106           5.5790693880         151.8141961330      Bu        Bu (3)
  111    38           6.2078726007         168.9248014355      Ag        Ag (1)
  112   107           6.2325793343         169.5971058372      Bu        Bu (3)
  113    65           6.5787407326         179.0166363627      Au        Au (2)
  114    66           6.6057597648         179.7518616071      Au        Au (2)
  115   108           6.6093345129         179.8491354493      Bu        Bu (3)
  116   134           6.6421914726         180.7432187772      Bg        Bg (4)
  117    39           6.6979864609         182.2614775956      Ag        Ag (1)
  118   135           6.7128095745         182.6648350234      Bg        Bg (4)
  119   109           6.7968264088         184.9510493130      Bu        Bu (3)
  120    40           6.9025071622         187.8267688122      Ag        Ag (1)
  121    41           6.9761329365         189.8302279852      Ag        Ag (1)
  122    67           7.0032192994         190.5672853902      Au        Au (2)
  123   136           7.1168366771         193.6589714158      Bg        Bg (4)
  124   110           7.1682512762         195.0580337845      Bu        Bu (3)
  125    42           7.1757749486         195.2627633171      Ag        Ag (1)
  126    68           7.1770518349         195.2975091618      Au        Au (2)
  127   137           7.2020827194         195.9786341566      Bg        Bg (4)
  128    69           7.2486453279         197.2456671482      Au        Au (2)
  129   111           7.2527996873         197.3587130138      Bu        Bu (3)
  130   138           7.2536595998         197.3821124225      Bg        Bg (4)
  131    43           7.3219654067         199.2408079225      Ag        Ag (1)
  132   112           7.4479310249         202.6685066563      Bu        Bu (3)
  133   113           7.5328948206         204.9804890747      Bu        Bu (3)
  134    44           7.6263902825         207.5246299358      Ag        Ag (1)
  135    45           7.8195325490         212.7802982000      Ag        Ag (1)
  136   114           8.3313342275         226.7071298980      Bu        Bu (3)
  137    46          13.4305225058         365.4630971687      Ag        Ag (1)
  138   115          14.9010050068         405.4769602846      Bu        Bu (3)


 
  ORBITAL EIGENVALUES ( BETA)  (1H = 27.2113834 eV)

       MO #        E(hartree)               E(eV)           FULLSYM    COMPSYM
       ----   --------------------   --------------------   -------   ---------
    1    70         -20.5885029490        -560.2416473773     E          Bu (3)
    2     1         -20.5884956169        -560.2414478617     E          Ag (1)
    3     2          -1.2772795819         -34.7565444131      Ag        Ag (1)
    4    71          -1.1910825542         -32.4110040438      Bu        Bu (3)
    5    72          -0.6775790416         -18.4378630847      Bu        Bu (3)
    6     3          -0.6092140276         -16.5775564777      Ag        Ag (1)
    7    47          -0.5443725448         -14.8131300292      Au        Au (2)
    8   116          -0.4848396367         -13.1931572420      Bg        Bg (4)
  +++++++++++++++++++++++++++++++++++++++++++++++++++++++++++++++++++++++++++++
    9     4           0.0181473243           0.4938137984      Ag        Ag (1)
   10     5           0.0411847408           1.1206937730      Ag        Ag (1)
   11    73           0.0435116637           1.1840125645      Bu        Bu (3)
   12    74           0.1108442097           3.0162242885      Bu        Bu (3)
   13    48           0.1510463376           4.1101798025      Au        Au (2)
   14     6           0.1568201702           4.2672937774      Ag        Ag (1)
   15    75           0.1572558599           4.2791494952      Bu        Bu (3)
   16     7           0.1712990399           4.6612838496      Ag        Ag (1)
   17     8           0.2005020628           5.4559385044      Ag        Ag (1)
   18   117           0.2013550266           5.4791488289      Bg        Bg (4)
   19   118           0.2558050146           6.9608083282      Bg        Bg (4)
   20     9           0.2713379310           7.3834804710      Ag        Ag (1)
   21    76           0.2721748392           7.4062539026      Bu        Bu (3)
   22    77           0.2821603281           7.6779728691      Bu        Bu (3)
   23    78           0.3182008421           8.6586851127      Bu        Bu (3)
   24    49           0.3431729389           9.3382104134      Au        Au (2)
   25    79           0.3674491412           9.9987994600      Bu        Bu (3)
   26    10           0.4351116095          11.8399888288      Ag        Ag (1)
   27    11           0.4533332199          12.3358240541      Ag        Ag (1)
   28    80           0.4663354495          12.6896327084      Bu        Bu (3)
   29    81           0.6541609656          17.8006248411      Bu        Bu (3)
   30    12           0.6559409032          17.8490594034      Ag        Ag (1)
   31    50           0.6716169130          18.2756253183      Au        Au (2)
   32   119           0.6843870573          18.6231186094      Bg        Bg (4)
   33    82           0.7284953533          19.8233663629      Bu        Bu (3)
   34    51           0.7487320445          20.3740347263      Au        Au (2)
   35    83           0.8062601736          21.9394547042      Bu        Bu (3)
   36    13           0.8109626030          22.0674143129      Ag        Ag (1)
   37    14           0.8577174526          23.3396784517      Ag        Ag (1)
   38    84           0.8600748963          23.4038277564      Bu        Bu (3)
   39   120           0.8604502600          23.4140419209      Bg        Bg (4)
   40    52           0.9036509874          24.5895934790      Au        Au (2)
   41    15           0.9202411658          25.0410351843      Ag        Ag (1)
   42   121           0.9526769037          25.9236564835      Bg        Bg (4)
   43    53           0.9750862752          26.5334464823      Au        Au (2)
   44    16           0.9842293371          26.7822418446      Ag        Ag (1)
   45    85           0.9957687753          27.0962459220      Bu        Bu (3)
   46    17           0.9966288031          27.1196484681      Ag        Ag (1)
   47   122           1.0019587698          27.2646842357      Bg        Bg (4)
   48    18           1.0371196210          28.2214596391      Ag        Ag (1)
   49    86           1.0525730324          28.6419683409      Bu        Bu (3)
   50    87           1.1845206007          32.2324442110      Bu        Bu (3)
   51   123           1.1876699050          32.3181411371      Bg        Bg (4)
   52    88           1.2280197659          33.4161166716      Bu        Bu (3)
   53    19           1.2642315307          34.4014888884      Ag        Ag (1)
   54    54           1.2693791638          34.5415631073      Au        Au (2)
   55    89           1.4027514748          38.1708081952      Bu        Bu (3)
   56    20           1.4435509871          39.2810193664      Ag        Ag (1)
   57   124           1.4985159741          40.7766927027      Bg        Bg (4)
   58    90           1.5233259464          41.4518063717      Bu        Bu (3)
   59    55           1.5452863235          42.0493786119      Au        Au (2)
   60    21           1.6232993063          44.1722197978      Ag        Ag (1)
   61    22           1.8241724102          49.6382548419      Ag        Ag (1)
   62    56           1.9138717637          52.0790983393      Au        Au (2)
   63    91           1.9356332785          52.6712592640      Bu        Bu (3)
   64    23           2.0748860804          56.4605206450      Ag        Ag (1)
   65    24           2.0884097666          56.8285188553      Ag        Ag (1)
   66    92           2.2039301030          59.9719870203      Bu        Bu (3)
   67    57           2.2460102556          61.1170461858      Au        Au (2)
   68    25           2.2469012161          61.1412904521      Ag        Ag (1)
   69   125           2.2792967998          62.0228191015      Bg        Bg (4)
   70    93           2.2888232483          62.2820469433      Bu        Bu (3)
   71   126           2.2989181150          62.5567422317      Bg        Bg (4)
   72    58           2.3625601027          64.2885287601      Au        Au (2)
   73    94           2.3718412515          64.5410816576      Bu        Bu (3)
   74   127           2.3805000538          64.7766996486      Bg        Bg (4)
   75    59           2.4334001201          66.2161836340      Au        Au (2)
   76    95           2.4462860596          66.5668278746      Bu        Bu (3)
   77    26           2.4475471874          66.6011449066      Ag        Ag (1)
   78    27           2.5272345863          68.7695492691      Ag        Ag (1)
   79    96           2.5352575767          68.9878659377      Bu        Bu (3)
   80    28           2.6299671060          71.5650432516      Ag        Ag (1)
   81    97           2.6507138535          72.1295909515      Bu        Bu (3)
   82    29           2.7614874979          75.1438950587      Ag        Ag (1)
   83   128           2.7622133078          75.1636453508      Bg        Bg (4)
   84    98           2.7840280706          75.7572552266      Bu        Bu (3)
   85    60           2.8175182462          76.6685692337      Au        Au (2)
   86   129           2.8836112779          78.4670520608      Bg        Bg (4)
   87    30           2.9953058376          81.5064155484      Ag        Ag (1)
   88    99           3.4217176994          93.1096722046      Bu        Bu (3)
   89    31           3.6229496901          98.5854730576      Ag        Ag (1)
   90   100           3.7549340971         102.1769513588      Bu        Bu (3)
   91    61           4.0713673718         110.7875385175      Au        Au (2)
   92    62           4.1310319891         112.4110952944      Au        Au (2)
   93   130           4.1431293778         112.7402819755      Bg        Bg (4)
   94    32           4.1650905406         113.3378755973      Ag        Ag (1)
   95   131           4.1883638860         113.9711755198      Bg        Bg (4)
   96   101           4.3227350478         117.6276007213      Bu        Bu (3)
   97   132           4.3353383371         117.9705536609      Bg        Bg (4)
   98    63           4.3639346786         118.7486996724      Au        Au (2)
   99   102           4.4224047133         120.3397502041      Bu        Bu (3)
  100    33           4.5606950125         124.1028205564      Ag        Ag (1)
  101   103           4.6090410870         125.4183841236      Bu        Bu (3)
  102    34           4.6808681027         127.3728965878      Ag        Ag (1)
  103   104           4.7686725298         129.7621765184      Bu        Bu (3)
  104    35           4.9377304326         134.3624759264      Ag        Ag (1)
  105   105           5.1994556830         141.4843820621      Bu        Bu (3)
  106    36           5.2106484802         141.7889535585      Ag        Ag (1)
  107    64           5.3010885800         144.2499537873      Au        Au (2)
  108   133           5.3387357817         145.2743862263      Bg        Bg (4)
  109    37           5.3712896413         146.1602217819      Ag        Ag (1)
  110   106           5.6201150918         152.9311065150      Bu        Bu (3)
  111    38           6.2326161596         169.5981079050      Ag        Ag (1)
  112   107           6.2586017227         170.3052110245      Bu        Bu (3)
  113    65           6.6251218151         180.2787297833      Au        Au (2)
  114   108           6.6554496491         181.1039921019      Bu        Bu (3)
  115    66           6.6626989650         181.3012560159      Au        Au (2)
  116   134           6.6899265894         182.0421573407      Bg        Bg (4)
  117    39           6.7423116289         183.4676267361      Ag        Ag (1)
  118   135           6.7617837892         183.9974911555      Bg        Bg (4)
  119   109           6.8413809085         186.1634388862      Bu        Bu (3)
  120    40           6.9480295138         189.0654949743      Ag        Ag (1)
  121    41           7.0760641752         192.5494952336      Ag        Ag (1)
  122    67           7.0918708219         192.9796159578      Au        Au (2)
  123   136           7.1882211771         195.6014424129      Bg        Bg (4)
  124    68           7.1904877942         195.6631202021      Au        Au (2)
  125   137           7.2290121585         196.7114214469      Bg        Bg (4)
  126    42           7.2301518505         196.7424340437      Ag        Ag (1)
  127   110           7.2320452132         196.7939550638      Bu        Bu (3)
  128    69           7.2697833528         197.8208620480      Au        Au (2)
  129   138           7.2812120454         198.1318525848      Bg        Bg (4)
  130   111           7.3329810572         199.5405590113      Bu        Bu (3)
  131    43           7.3877064183         201.0297117961      Ag        Ag (1)
  132   112           7.5034599492         204.1795255035      Bu        Bu (3)
  133   113           7.5587682020         205.6845395775      Bu        Bu (3)
  134    44           7.6561079335         208.3332883290      Ag        Ag (1)
  135    45           7.8585774861         213.8427649529      Ag        Ag (1)
  136   114           8.3868694637         228.2183205011      Bu        Bu (3)
  137    46          13.4664917048         366.4418688323      Ag        Ag (1)
  138   115          14.9282220053         406.2175724655      Bu        Bu (3)


  VSCF finished.

 @CHECKOUT-I, Total execution time (CPU/WALL):        5.74/       5.76 seconds.
--executable xvscf finished with status     0 in        5.80 seconds (walltime).
 --invoking executable--
/apps/eb/cfour/2.1-iompi-2018a-serial/bin/xvtran
 @GETMEM-I,  Allocated   38146 MB of main memory.
  Full UHF integral transformation
  Frozen-core orbitals requested within analytic derivative calculation
  Transformation of IIII integrals :
  2 passes through the AO integral file were required.
     1246094 AO integrals were read.
     1246094 MO integrals (Spin case AAAA) were written to HF2AA.
     1246094 MO integrals (Spin case BBBB) were written to HF2BB.
     2489474 MO integrals (Spin case AABB) were written to HF2AB.
  Transformation of IIJJ integrals :
  2 passes through the AO integral file were required.
     2438161 AO integrals were read.
     2438161 MO integrals (Spin case AAAA) were written to HF2AA.
     2438161 MO integrals (Spin case BBBB) were written to HF2BB.
     4876322 MO integrals (Spin case AABB) were written to HF2AB.
  Transformation of IJIJ integrals :
  2 passes through the AO integral file were required.
     4620815 AO integrals were read.
     4620815 MO integrals (Spin case AAAA) were written to HF2AA.
     4620815 MO integrals (Spin case BBBB) were written to HF2BB.
     9234753 MO integrals (Spin case AABB) were written to HF2AB.
  Transformation of IJKL integrals :
  2 passes through the AO integral file were required.
     3358092 AO integrals were read.
     3358092 MO integrals (Spin case AAAA) were written to HF2AA.
     3358092 MO integrals (Spin case BBBB) were written to HF2BB.
     6716184 MO integrals (Spin case AABB) were written to HF2AB.
  Summary of active molecular orbitals: 
------------------------------------------------------------------------
                         * Spin case alpha *
 
  Index      Eigenvalue    Symmetry    Index      Eigenvalue    Symmetry
------------------------------------------------------------------------
     1       -20.6312995        1        70         6.5787407        2
     2        -1.4454534        1        71         6.6057598        2
     3        -0.7490900        1        72         7.0032193        2
     4        -0.6545167        1        73         7.1770518        2
     5        -0.5937750        2        74         7.2486453        2
     6       -20.6313435        3        75         0.0454471        3
     7        -1.3597977        3        76         0.1177012        3
     8        -0.7251530        3        77         0.1777296        3
     9        -0.5769284        3        78         0.2759541        3
    10        -0.5370612        4        79         0.3103709        3
    11         0.0334130        1        80         0.3562936        3
    12         0.1511295        1        81         0.4462026        3
    13         0.1607665        1        82         0.6437675        3
    14         0.1924286        1        83         0.7055008        3
    15         0.2699251        1        84         0.7672155        3
    16         0.4068926        1        85         0.8542310        3
    17         0.4400306        1        86         0.9793540        3
    18         0.6566733        1        87         1.0333929        3
    19         0.7864029        1        88         1.1779639        3
    20         0.8374370        1        89         1.2165226        3
    21         0.9034775        1        90         1.3723698        3
    22         0.9590272        1        91         1.4876360        3
    23         0.9947401        1        92         1.9192404        3
    24         1.0224945        1        93         2.1636990        3
    25         1.1681970        1        94         2.2403652        3
    26         1.4089553        1        95         2.3486022        3
    27         1.5939636        1        96         2.4248239        3
    28         1.8081134        1        97         2.5073865        3
    29         2.0213520        1        98         2.6297935        3
    30         2.0532405        1        99         2.7445907        3
    31         2.2105656        1       100         3.3672198        3
    32         2.4214147        1       101         3.7527306        3
    33         2.5034479        1       102         4.2548889        3
    34         2.5994417        1       103         4.3839298        3
    35         2.7186856        1       104         4.5925911        3
    36         2.9680928        1       105         4.7531670        3
    37         3.6138867        1       106         5.1769533        3
    38         4.1476606        1       107         5.5790694        3
    39         4.4976428        1       108         6.2325793        3
    40         4.6696746        1       109         6.6093345        3
    41         4.9278335        1       110         6.7968264        3
    42         5.1841041        1       111         7.1682513        3
    43         5.3207890        1       112         7.2527997        3
    44         6.2078726        1       113         7.4479310        3
    45         6.6979865        1       114         7.5328948        3
    46         6.9025072        1       115         8.3313342        3
    47         6.9761329        1       116        14.9010050        3
    48         7.1757749        1       117         0.1998718        4
    49         7.3219654        1       118         0.2560587        4
    50         7.6263903        1       119         0.6857292        4
    51         7.8195325        1       120         0.8439385        4
    52        13.4305225        1       121         0.9487214        4
    53         0.1486984        2       122         1.0004308        4
    54         0.3416294        2       123         1.1802026        4
    55         0.6512090        2       124         1.4990638        4
    56         0.7501927        2       125         2.2126055        4
    57         0.8979608        2       126         2.2833302        4
    58         0.9656643        2       127         2.3665417        4
    59         1.2678236        2       128         2.7553105        4
    60         1.5456556        2       129         2.8612762        4
    61         1.8684307        2       130         4.1311673        4
    62         2.2363520        2       131         4.1795202        4
    63         2.3357476        2       132         4.3387871        4
    64         2.3998200        2       133         5.3314918        4
    65         2.8114516        2       134         6.6421915        4
    66         4.0675372        2       135         6.7128096        4
    67         4.1143882        2       136         7.1168367        4
    68         4.3670086        2       137         7.2020827        4
    69         5.2936247        2       138         7.2536596        4
------------------------------------------------------------------------
------------------------------------------------------------------------
                         * Spin case beta *
 
  Index      Eigenvalue    Symmetry    Index      Eigenvalue    Symmetry
------------------------------------------------------------------------
     1       -20.5884956        1        70         6.6626990        2
     2        -1.2772796        1        71         7.0918708        2
     3        -0.6092140        1        72         7.1904878        2
     4        -0.5443725        2        73         7.2697834        2
     5       -20.5885029        3        74         0.0435117        3
     6        -1.1910826        3        75         0.1108442        3
     7        -0.6775790        3        76         0.1572559        3
     8        -0.4848396        4        77         0.2721748        3
     9         0.0181473        1        78         0.2821603        3
    10         0.0411847        1        79         0.3182008        3
    11         0.1568202        1        80         0.3674491        3
    12         0.1712990        1        81         0.4663354        3
    13         0.2005021        1        82         0.6541610        3
    14         0.2713379        1        83         0.7284954        3
    15         0.4351116        1        84         0.8062602        3
    16         0.4533332        1        85         0.8600749        3
    17         0.6559409        1        86         0.9957688        3
    18         0.8109626        1        87         1.0525730        3
    19         0.8577175        1        88         1.1845206        3
    20         0.9202412        1        89         1.2280198        3
    21         0.9842293        1        90         1.4027515        3
    22         0.9966288        1        91         1.5233259        3
    23         1.0371196        1        92         1.9356333        3
    24         1.2642315        1        93         2.2039301        3
    25         1.4435510        1        94         2.2888232        3
    26         1.6232993        1        95         2.3718413        3
    27         1.8241724        1        96         2.4462861        3
    28         2.0748861        1        97         2.5352576        3
    29         2.0884098        1        98         2.6507139        3
    30         2.2469012        1        99         2.7840281        3
    31         2.4475472        1       100         3.4217177        3
    32         2.5272346        1       101         3.7549341        3
    33         2.6299671        1       102         4.3227350        3
    34         2.7614875        1       103         4.4224047        3
    35         2.9953058        1       104         4.6090411        3
    36         3.6229497        1       105         4.7686725        3
    37         4.1650905        1       106         5.1994557        3
    38         4.5606950        1       107         5.6201151        3
    39         4.6808681        1       108         6.2586017        3
    40         4.9377304        1       109         6.6554496        3
    41         5.2106485        1       110         6.8413809        3
    42         5.3712896        1       111         7.2320452        3
    43         6.2326162        1       112         7.3329811        3
    44         6.7423116        1       113         7.5034599        3
    45         6.9480295        1       114         7.5587682        3
    46         7.0760642        1       115         8.3868695        3
    47         7.2301519        1       116        14.9282220        3
    48         7.3877064        1       117         0.2013550        4
    49         7.6561079        1       118         0.2558050        4
    50         7.8585775        1       119         0.6843871        4
    51        13.4664917        1       120         0.8604503        4
    52         0.1510463        2       121         0.9526769        4
    53         0.3431729        2       122         1.0019588        4
    54         0.6716169        2       123         1.1876699        4
    55         0.7487320        2       124         1.4985160        4
    56         0.9036510        2       125         2.2792968        4
    57         0.9750863        2       126         2.2989181        4
    58         1.2693792        2       127         2.3805001        4
    59         1.5452863        2       128         2.7622133        4
    60         1.9138718        2       129         2.8836113        4
    61         2.2460103        2       130         4.1431294        4
    62         2.3625601        2       131         4.1883639        4
    63         2.4334001        2       132         4.3353383        4
    64         2.8175182        2       133         5.3387358        4
    65         4.0713674        2       134         6.6899266        4
    66         4.1310320        2       135         6.7617838        4
    67         4.3639347        2       136         7.1882212        4
    68         5.3010886        2       137         7.2290122        4
    69         6.6251218        2       138         7.2812120        4
------------------------------------------------------------------------
  -20.6312994970440       -1.44545337093322      -0.749089991818004     
 -0.654516723118911      -0.593775044454469       -20.6313435469745     
  -1.35979768289112      -0.725153011404472      -0.576928398428861     
 -0.537061156404064       3.341301399641251E-002  0.151129535180276     
  0.160766460671986       0.192428612809634       0.269925137871785     
  0.406892615147135       0.440030574235565       0.656673335069755     
  0.786402923418566       0.837436956292033       0.903477498664206     
  0.959027175583093       0.994740074169756        1.02249446259681     
   1.16819697831346        1.40895526986697        1.59396359981088     
   1.80811338274836        2.02135200854697        2.05324053677149     
   2.21056557352934        2.42141471734049        2.50344785926280     
   2.59944165296960        2.71868561608162        2.96809277101001     
   3.61388671026602        4.14766063335080        4.49764279617826     
   4.66967457157341        4.92783351312425        5.18410412178254     
   5.32078896408207        6.20787260068046        6.69798646090236     
   6.90250716221071        6.97613293652665        7.17577494855061     
   7.32196540667262        7.62639028252458        7.81953254901411     
   13.4305225058386       0.148698380559845       0.341629351607235     
  0.651209013911114       0.750192652601896       0.897960785426984     
  0.965664346950530        1.26782358419144        1.54565556236661     
   1.86843069750435        2.23635195822064        2.33574758504552     
   2.39981999866953        2.81145164898114        4.06753715913089     
   4.11438823126991        4.36700860442718        5.29362470286952     
   6.57874073255175        6.60575976475779        7.00321929939649     
   7.17705183492363        7.24864532790393       4.544705899527036E-002
  0.117701239151189       0.177729562739212       0.275954121588517     
  0.310370909468728       0.356293573033734       0.446202592652019     
  0.643767497312313       0.705500783265802       0.767215515660186     
  0.854230950389081       0.979353963322202        1.03339291979572     
   1.17796385503201        1.21652261550293        1.37236976522490     
   1.48763597134571        1.91924039779510        2.16369901576579     
   2.24036516577588        2.34860219681462        2.42482390482912     
   2.50738653605994        2.62979353628578        2.74459065876453     
   3.36721981603051        3.75273063848843        4.25488891870502     
   4.38392984273277        4.59259109699761        4.75316703147638     
   5.17695329442153        5.57906938803249        6.23257933432516     
   6.60933451289781        6.79682640879614        7.16825127620988     
   7.25279968727464        7.44793102493484        7.53289482057976     
   8.33133422749659        14.9010050067713       0.199871832726411     
  0.256058671511086       0.685729159182190       0.843938517053265     
  0.948721351994213        1.00043083317540        1.18020263651547     
   1.49906382117573        2.21260552392934        2.28333015341706     
   2.36654165023718        2.75531050390836        2.86127618679453     
   4.13116726217797        4.17952023038315        4.33878706804905     
   5.33149179844308        6.64219147260160        6.71280957451775     
   7.11683667710053        7.20208271941714        7.25365959977328     
  -20.5884956169384       -1.27727958193722      -0.609214027602231     
 -0.544372544807821       -20.5885029490027       -1.19108255421591     
 -0.677579041595733      -0.484839636708588       1.814732427098953E-002
  4.118474083260053E-002  0.156820170246110       0.171299039858183     
  0.200502062838472       0.271337930985163       0.435111609533238     
  0.453333219880807       0.655940903153340       0.810962602984257     
  0.857717452603298       0.920241165844857       0.984229337073624     
  0.996628803081324        1.03711962101362        1.26423153070714     
   1.44355098706379        1.62329930634145        1.82417241020860     
   2.07488608039661        2.08840976660115        2.24690121605919     
   2.44754718742374        2.52723458628321        2.62996710603189     
   2.76148749786499        2.99530583764332        3.62294969014997     
   4.16509054064985        4.56069501253090        4.68086810271448     
   4.93773043256559        5.21064848024317        5.37128964130135     
   6.23261615964052        6.74231162889492        6.94802951379132     
   7.07606417517055        7.23015185048192        7.38770641834000     
   7.65610793345299        7.85857748610232        13.4664917048015     
  0.151046337558415       0.343172938917762       0.671616913026169     
  0.748732044484014       0.903650987439202       0.975086275192039     
   1.26937916384189        1.54528632351406        1.91387176365616     
   2.24601025561077        2.36256010269943        2.43340012011363     
   2.81751824619566        4.07136737184553        4.13103198914830     
   4.36393467861524        5.30108857998361        6.62512181513296     
   6.66269896501870        7.09187082189333        7.19048779424153     
   7.26978335280147       4.351166374360677E-002  0.110844209724112     
  0.157255859883644       0.272174839249352       0.282160328133409     
  0.318200842104241       0.367449141155758       0.466335449463818     
  0.654160965630910       0.728495353268486       0.806260173608347     
  0.860074896316685       0.995768775282681        1.05257303238965     
   1.18452060070461        1.22801976586201        1.40275147478290     
   1.52332594643971        1.93563327853282        2.20393010302904     
   2.28882324826159        2.37184125146703        2.44628605962768     
   2.53525757671251        2.65071385350932        2.78402807064067     
   3.42171769938573        3.75493409713366        4.32273504776153     
   4.42240471331803        4.60904108696029        4.76867252983505     
   5.19945568302571        5.62011509179532        6.25860172270880     
   6.65544964913220        6.84138090848412        7.23204521324599     
   7.33298105715969        7.50345994917160        7.55876820204092     
   8.38686946365005        14.9282220052623       0.201355026620765     
  0.255805014611609       0.684387057271253       0.860450259977356     
  0.952676903721338        1.00195876978713        1.18766990498270     
   1.49851597411715        2.27929679978928        2.29891811497319     
   2.38050005383430        2.76221330778866        2.88361127794659     
   4.14312937781315        4.18836388596934        4.33533833714850     
   5.33873578166868        6.68992658935094        6.76178378918874     
   7.18822117705595        7.22901215845266        7.28121204542530     
 @CHECKOUT-I, Total execution time (CPU/WALL):        7.38/       8.33 seconds.
--executable xvtran finished with status     0 in        8.36 seconds (walltime).
 --invoking executable--
/apps/eb/cfour/2.1-iompi-2018a-serial/bin/xintprc
 @GETMEM-I,  Allocated   38146 MB of main memory.
  @GMOIAA-I, Processing MO integrals for spin case AA.
  @GMOIAA-I, Generation of integral list completed.
                      TYPE                NUMBER
                      ----               --------
                      PPPP               8618656
                      PPPH               2693760
                      PPHH                212640
                      PHPH                118648
                      PHHH                 18980
                      HHHH                   478

                     TOTAL              11663162
  @GMOIAA-I, Processing MO integrals for spin case BB.
  @GMOIAA-I, Generation of integral list completed.
                      TYPE                NUMBER
                      ----               --------
                      PPPP               9180568
                      PPPH               2253674
                      PPHH                139248
                      PHPH                 79606
                      PHHH                  9864
                      HHHH                   202

                     TOTAL              11663162
  @GMOIAB-I, Processing MO integrals for spin case AB.
[...]
 ======================================================================
 Norm of residual vector:     0.00122421
 CPU time [min]:  3834.282                   Wall time [min]:   609.167
 
 Iteration 11  CI energy:  -151.25586965  Energy decrease:   0.0000E+00
 ======================================================================
 Norm of residual vector:     0.00104368
 CPU time [min]:  3914.113                   Wall time [min]:   621.778
 
 Iteration 12  CI energy:  -151.25586965  Energy decrease:   0.0000E+00
 ======================================================================
 Norm of residual vector:     0.00080292
 CPU time [min]:  3990.704                   Wall time [min]:   634.197
 
 Iteration 13  CI energy:  -151.25586965  Energy decrease:   0.0000E+00
 ======================================================================
 Norm of residual vector:     0.00056732
 CPU time [min]:  4067.465                   Wall time [min]:   646.637
 
 Iteration 14  CI energy:  -151.25586965  Energy decrease:   0.0000E+00
 ======================================================================
 Norm of residual vector:     0.00036254
 CPU time [min]:  4145.306                   Wall time [min]:   659.280
 
 Iteration 15  CI energy:  -151.25586965  Energy decrease:   0.0000E+00
 ======================================================================
 Norm of residual vector:     0.00023624
 CPU time [min]:  4220.795                   Wall time [min]:   671.760
 
 Iteration 16  CI energy:  -151.25586965  Energy decrease:   0.0000E+00
 ======================================================================
 Norm of residual vector:     0.00014470
 CPU time [min]:  4294.697                   Wall time [min]:   684.173
 
 Iteration 17  CI energy:  -151.25586965  Energy decrease:   0.0000E+00
 ======================================================================
 Norm of residual vector:     0.00008173
 CPU time [min]:  4369.288                   Wall time [min]:   696.644
 
 Iteration 18  CI energy:  -151.25586965  Energy decrease:   0.0000E+00
 ======================================================================
 Norm of residual vector:     0.00004742
 CPU time [min]:  4449.202                   Wall time [min]:   709.679
 
 Iteration 19  CI energy:  -151.25586965  Energy decrease:   0.0000E+00
 ======================================================================
 Norm of residual vector:     0.00002606
 CPU time [min]:  4531.706                   Wall time [min]:   723.071
 
 Iteration 20  CI energy:  -151.25586965  Energy decrease:   0.0000E+00
 ======================================================================
 Norm of residual vector:     0.00001442
 CPU time [min]:  4614.909                   Wall time [min]:   736.618
 
 Iteration 21  CI energy:  -151.25586965  Energy decrease:   0.0000E+00
 ======================================================================
 Norm of residual vector:     0.00000723
 CPU time [min]:  4698.882                   Wall time [min]:   750.278
 
 Iteration 22  CI energy:  -151.25586965  Energy decrease:   0.0000E+00
 ======================================================================
 Norm of residual vector:     0.00000356
 CPU time [min]:  4784.572                   Wall time [min]:   764.147
 
 Iteration 23  CI energy:  -151.25586965  Energy decrease:   0.0000E+00
 ======================================================================
 Norm of residual vector:     0.00000183
 CPU time [min]:  4868.818                   Wall time [min]:   778.085
 
 Iteration 24  CI energy:  -151.25586965  Energy decrease:   0.0000E+00
 ======================================================================
 Norm of residual vector:     0.00000092
 CPU time [min]:  4954.642                   Wall time [min]:   792.336
 
 Iteration 25  CI energy:  -151.25586965  Energy decrease:   0.0000E+00
 ======================================================================
 Norm of residual vector:     0.00000045
 CPU time [min]:  5039.745                   Wall time [min]:   806.647
 
 Iteration 26  CI energy:  -151.25586965  Energy decrease:   0.0000E+00
 ======================================================================
 Norm of residual vector:     0.00000021
 CPU time [min]:  5125.857                   Wall time [min]:   821.127
 
 Iteration 27  CI energy:  -151.25586965  Energy decrease:   0.0000E+00
 ======================================================================
 Norm of residual vector:     0.00000010
 CPU time [min]:  5212.452                   Wall time [min]:   835.934
 
 Iteration 28  CI energy:  -151.25586965  Energy decrease:   0.0000E+00
 ======================================================================
 Norm of residual vector:     0.00000005
 CPU time [min]:  5299.624                   Wall time [min]:   850.837
 
 Iteration 29  CI energy:  -151.25586965  Energy decrease:   0.0000E+00
 ======================================================================
 Norm of residual vector:     0.00000002
 CPU time [min]:  5386.975                   Wall time [min]:   865.900
 
 Iteration 30  CI energy:  -151.25586965  Energy decrease:   0.0000E+00
 ======================================================================
 Norm of residual vector:     0.00000001
 CPU time [min]:  5476.128                   Wall time [min]:   881.069
 
 Iteration 31  CI energy:  -151.25586965  Energy decrease:   0.0000E+00
 ======================================================================
 Norm of residual vector:     0.00000001
 CPU time [min]:  5564.858                   Wall time [min]:   896.300
 
 Iteration 32  CI energy:  -151.25586965  Energy decrease:   0.0000E+00
 ======================================================================
 Norm of residual vector:     2.5377E-09
 CPU time [min]:  5654.116                   Wall time [min]:   911.576
 
 Iteration 33  CI energy:  -151.25586965  Energy decrease:   0.0000E+00
 ======================================================================
 Norm of residual vector:     1.2664E-09
 CPU time [min]:  5742.699                   Wall time [min]:   926.876
 
 Iteration 34  CI energy:  -151.25586965  Energy decrease:   0.0000E+00
 ======================================================================
 Norm of residual vector:     6.6914E-10
 CPU time [min]:  5831.612                   Wall time [min]:   942.311
 
 Iteration 35  CI energy:  -151.25586965  Energy decrease:   0.0000E+00
 ======================================================================
 Norm of residual vector:     3.6515E-10
 CPU time [min]:  5921.088                   Wall time [min]:   957.841
 
 Iteration 36  CI energy:  -151.25586965  Energy decrease:   0.0000E+00
 ======================================================================
 Norm of residual vector:     1.9713E-10
 CPU time [min]:  6010.481                   Wall time [min]:   973.370
 
 Iteration 37  CI energy:  -151.25586965  Energy decrease:   0.0000E+00
 ======================================================================
 Norm of residual vector:     1.1162E-10
 CPU time [min]:  6099.766                   Wall time [min]:   988.828
 
 Iteration 38  CI energy:  -151.25586965  Energy decrease:   0.0000E+00
 ======================================================================
 Norm of residual vector:     6.2871E-11
 CPU time [min]:  6189.647                   Wall time [min]:  1004.569
 
 Iteration 39  CI energy:  -151.25586965  Energy decrease:   0.0000E+00
 ======================================================================
 Norm of residual vector:     3.5529E-11
 CPU time [min]:  6280.172                   Wall time [min]:  1020.312
 
 Iteration 40  CI energy:  -151.25586965  Energy decrease:   0.0000E+00
 ======================================================================
 Norm of residual vector:     1.8782E-11
 CPU time [min]:  6371.278                   Wall time [min]:  1036.068
 
 Iteration 41  CI energy:  -151.25586965  Energy decrease:   0.0000E+00
 ======================================================================
 Norm of residual vector:     9.2876E-12
 CPU time [min]:  6463.042                   Wall time [min]:  1052.221
 
 Iteration 42  CI energy:  -151.25586965  Energy decrease:   0.0000E+00
 ======================================================================
 Norm of residual vector:     4.5558E-12
 CPU time [min]:  6554.156                   Wall time [min]:  1068.335
 
 Iteration 43  CI energy:  -151.25586965  Energy decrease:   0.0000E+00
 ======================================================================
 Norm of residual vector:     2.2830E-12
 CPU time [min]:  6646.524                   Wall time [min]:  1084.549
 
 Iteration 44  CI energy:  -151.25586965  Energy decrease:   0.0000E+00
 ======================================================================
 Norm of residual vector:     1.1950E-12
 CPU time [min]:  6740.083                   Wall time [min]:  1100.921
 
 Iteration 45  CI energy:  -151.25586965  Energy decrease:   0.0000E+00
 ======================================================================
 Norm of residual vector:     6.2589E-13
 CPU time [min]:  6817.040                   Wall time [min]:  1112.816
 
 Iteration 46  CI energy:  -151.25586965  Energy decrease:   0.0000E+00
 ======================================================================
 
 Iteration has converged in 46 steps.
 
 Final results:
 Total CCSDT energy [au]:           -151.255869650707
 
 
 
 Calculating reduced density-matrix for root 1...
 
 Total energy from RDM [au]:        -151.255869650707
 
 ************************ 2021-01-31 22:26:35 *************************
                      Normal termination of mrcc.
 **********************************************************************
--executable dmrcc finished with status     0 in    69341.16 seconds (walltime).
 --invoking executable--
/apps/eb/cfour/2.1-iompi-2018a-serial/bin/xdens
 @GETMEM-I,  Allocated   38146 MB of main memory.
  CCSDT density and intermediates are calculated.
  The perturbed orbitals are chosen canonical.
   Frozen core orbitals in analytic derivative calculation
  dropped orbitals                     1                     0
                     1                     0                     0
                     0                     0                     0
 ITERM.tmp does not exsit!
 skip reading
  @S2EXPECT-I, S**2 calculated as expectation value.
  @S2EXPECT-I, Contributions to <S**2> : 
  From one particle density : 
    D(ai)   :   -0.0077032459
    D(ij)   :    0.0825491496
    D(ab)   :    0.1064314824
  From two particle density : 
    G(abcd) :   -0.0591343255
    G(abci) :    0.0008702305
    G(abij) :   -0.0232785055
    G(aibj) :   -0.0607454947
    G(ijka) :    0.0041231035
    G(ijkl) :   -0.0589154984
              Reference state <S**2>        :    2.0158181878.
              Total one particle correction :    0.1812773861.
              Total two particle correction :   -0.1970804901.
              Expectation value of <S**2>   :    2.0000150837.
  The iterative expansion of D(ai) converged after  20 iterations.
  ----------------------------------------------------------------------
                 Natural orbital occupation numbers
  ----------------------------------------------------------------------
                            Alpha spin
  ----------------------------------------------------------------------
  1.00000  1.00000  0.99226  0.99130  0.98565  0.98308  0.98228  0.98139
  0.97994  0.97821  0.01588  0.01420  0.01165  0.00852  0.00826  0.00683
  0.00582  0.00566  0.00442  0.00432  0.00430  0.00355  0.00355  0.00336
  0.00323  0.00319  0.00311  0.00209  0.00077  0.00068  0.00068  0.00063
  0.00058  0.00056  0.00051  0.00049  0.00048  0.00047  0.00045  0.00044
  0.00042  0.00039  0.00038  0.00037  0.00034  0.00031  0.00030  0.00030
  0.00029  0.00028  0.00028  0.00028  0.00027  0.00025  0.00024  0.00022
  0.00020  0.00019  0.00017  0.00009  0.00009  0.00008  0.00008  0.00007
  0.00007  0.00007  0.00007  0.00007  0.00006  0.00005  0.00005  0.00005
  0.00004  0.00004  0.00004  0.00004  0.00004  0.00004  0.00003  0.00003
  0.00003  0.00003  0.00003  0.00003  0.00003  0.00003  0.00002  0.00002
  0.00002  0.00002  0.00002  0.00002  0.00002  0.00002  0.00002  0.00001
  0.00001  0.00001  0.00001  0.00001  0.00001  0.00001  0.00001  0.00001
  0.00001  0.00001  0.00001  0.00000  0.00000  0.00000  0.00000  0.00000
  0.00000  0.00000  0.00000  0.00000  0.00000  0.00000  0.00000  0.00000
  0.00000  0.00000  0.00000  0.00000  0.00000  0.00000  0.00000  0.00000
  0.00000  0.00000  0.00000  0.00000  0.00000  0.00000  0.00000  0.00000
  0.00000  0.00000
  Trace of density matrix :  10.0000000000.
  ----------------------------------------------------------------------
                            Beta spin
  ----------------------------------------------------------------------
  1.00001  1.00001  0.98600  0.98449  0.98057  0.97897  0.97838  0.97680
  0.01531  0.01383  0.01155  0.01087  0.00935  0.00831  0.00568  0.00528
  0.00354  0.00335  0.00334  0.00320  0.00217  0.00198  0.00169  0.00168
  0.00126  0.00097  0.00071  0.00064  0.00061  0.00060  0.00057  0.00056
  0.00051  0.00047  0.00046  0.00035  0.00031  0.00031  0.00031  0.00029
  0.00029  0.00026  0.00026  0.00026  0.00022  0.00019  0.00018  0.00018
  0.00017  0.00017  0.00016  0.00015  0.00014  0.00013  0.00012  0.00011
  0.00011  0.00008  0.00008  0.00008  0.00007  0.00007  0.00007  0.00007
  0.00006  0.00006  0.00006  0.00006  0.00004  0.00004  0.00004  0.00004
  0.00004  0.00003  0.00003  0.00003  0.00003  0.00003  0.00003  0.00003
  0.00003  0.00003  0.00002  0.00002  0.00002  0.00002  0.00002  0.00002
  0.00002  0.00002  0.00002  0.00001  0.00001  0.00001  0.00001  0.00001
  0.00001  0.00001  0.00001  0.00001  0.00001  0.00001  0.00001  0.00001
  0.00001  0.00001  0.00000  0.00000  0.00000  0.00000  0.00000  0.00000
  0.00000  0.00000  0.00000  0.00000  0.00000  0.00000  0.00000  0.00000
  0.00000  0.00000  0.00000  0.00000  0.00000  0.00000  0.00000  0.00000
  0.00000  0.00000  0.00000  0.00000  0.00000  0.00000  0.00000  0.00000
  0.00000  0.00000
  Trace of density matrix :   8.0000000000.
  ----------------------------------------------------------------------
  Density calculation successfully completed.
 @CHECKOUT-I, Total execution time (CPU/WALL):      208.28/     208.44 seconds.
--executable xdens finished with status     0 in      208.58 seconds (walltime).
 --invoking executable--
/apps/eb/cfour/2.1-iompi-2018a-serial/bin/xanti
 @GETMEM-I,  Allocated   38146 MB of main memory.
 CCSDT MO gammas will be sorted to Mulliken order.
 @CHECKOUT-I, Total execution time (CPU/WALL):        5.27/       5.27 seconds.
--executable xanti finished with status     0 in        5.30 seconds (walltime).
 --invoking executable--
/apps/eb/cfour/2.1-iompi-2018a-serial/bin/xbcktrn
 @GETMEM-I,  Allocated   38146 MB of main memory.
 CCSDT MO gammas will be transformed to the AO basis.
 @CHECKOUT-I, Total execution time (CPU/WALL):        1.49/       1.49 seconds.
--executable xbcktrn finished with status     0 in        1.51 seconds (walltime).
 --invoking executable--
/apps/eb/cfour/2.1-iompi-2018a-serial/bin/xvdint
 @GETMEM-I,  Allocated   38146 MB of main memory.
 One- and two-electron integral derivatives are calculated
 for UHF-CC/MBPT gradients and dipole moments.
 Spherical gaussians are used.

                     Kinetic energy integral gradient
                     --------------------------------

                         O #1 x     0.1290032916
                         O #1 y    -1.1963083391
                         H #2 x    -0.2657453200
                         H #2 y     1.2284214770


 O #1 1     0.0645016458           -0.5981541695            0.0000000000
 O #1 2    -0.0645016458            0.5981541695            0.0000000000
 H #2 1    -0.1328726600            0.6142107385            0.0000000000
 H #2 2     0.1328726600           -0.6142107385            0.0000000000



                   Nuclear attraction integral gradient
                   ------------------------------------

                         O #1 x   -19.8961644173
                         O #1 y    10.8903942942
                         H #2 x     0.5280955949
                         H #2 y   -12.5196093495


 O #1 1    -9.9480822086            5.4451971471            0.0000000000
 O #1 2     9.9480822086           -5.4451971471            0.0000000000
 H #2 1     0.2640477975           -6.2598046748            0.0000000000
 H #2 2    -0.2640477975            6.2598046748            0.0000000000



                      Reorthonormalization gradient
                      -----------------------------

                         O #1 x    -0.0266733083
                         O #1 y    -0.4915516028
                         H #2 x    -0.0820209964
                         H #2 y     0.5324460697


 O #1 1    -0.0133366542           -0.2457758014            0.0000000000
 O #1 2     0.0133366542            0.2457758014            0.0000000000
 H #2 1    -0.0410104982            0.2662230349            0.0000000000
 H #2 2     0.0410104982           -0.2662230349            0.0000000000



                Electronic contributions to dipole moment
                -----------------------------------------

                     All components zero by symmetry

  Conversion factor used: 1 a.u. =   2.54174691 Debye 


 Evaluation of 1e integral derivatives required    0.12 seconds.
 Evaluation of 2el integral derivatives

                      Two-electron integral gradient
                      ------------------------------

                         O #1 x     8.3817146824
                         O #1 y    -4.7063792211
                         H #2 x    -0.1497746777
                         H #2 y     5.5101542857


 O #1 1     4.1908573412           -2.3531896105            0.0000000000
 O #1 2    -4.1908573412            2.3531896105            0.0000000000
 H #2 1    -0.0748873389            2.7550771429            0.0000000000
 H #2 2     0.0748873389           -2.7550771429            0.0000000000


 Evaluation of 2e integral derivatives required    7.85 seconds.

                            Molecular gradient
                            ------------------

                         O #1 x     0.1596793714
                         O #1 y    -0.0101659099
                         H #2 x     0.0046319950
                         H #2 y     0.0098377585


 O #1 1     0.0798396857           -0.0050829549            0.0000000000
 O #1 2    -0.0798396857            0.0050829549            0.0000000000
 H #2 1     0.0023159975            0.0049188793            0.0000000000
 H #2 2    -0.0023159975           -0.0049188793            0.0000000000


  Molecular gradient norm 0.160E+00

                           Total dipole moment
                           -------------------

                     All components zero by symmetry

  Conversion factor used: 1 a.u. =   2.54174691 Debye 


 @CHECKOUT-I, Total execution time (CPU/WALL):        7.96/       8.22 seconds.
--executable xvdint finished with status     0 in        8.24 seconds (walltime).
 --invoking executable--
/apps/eb/cfour/2.1-iompi-2018a-serial/bin/xjoda
  igrd and ihes are                      0                    -1
  gradient from JOBARC 
   0.079839685681841  -0.005082954938595   0.000000000000000
  -0.079839685681841   0.005082954938595   0.000000000000000
   0.002315997499986   0.004918879255311   0.000000000000000
  -0.002315997499986  -0.004918879255311   0.000000000000000
 
 @CHECKOUT-I, Total execution time (CPU/WALL):        0.06/       0.07 seconds.
--executable xjoda finished with status     0 in        0.09 seconds (walltime).
  The final electronic energy is      -151.255869650706700 a.u. 
  This computation required                        69687.54 seconds (walltime).
