
    -----------------------------------------------------------------------
          Psi4: An Open-Source Ab Initio Electronic Structure Package
                               Psi4 1.4a2.dev191 

                         Git: Rev {master} 0ab5346 


    R. M. Parrish, L. A. Burns, D. G. A. Smith, A. C. Simmonett,
    A. E. DePrince III, E. G. Hohenstein, U. Bozkaya, A. Yu. Sokolov,
    R. Di Remigio, R. M. Richard, J. F. Gonthier, A. M. James,
    H. R. McAlexander, A. Kumar, M. Saitow, X. Wang, B. P. Pritchard,
    P. Verma, H. F. Schaefer III, K. Patkowski, R. A. King, E. F. Valeev,
    F. A. Evangelista, J. M. Turney, T. D. Crawford, and C. D. Sherrill,
    J. Chem. Theory Comput. 13(7) pp 3185--3197 (2017).
    (doi: 10.1021/acs.jctc.7b00174)


                         Additional Contributions by
    P. Kraus, H. Kruse, M. H. Lechner, M. C. Schieber, R. A. Shaw,
    A. Alenaizan, R. Galvelis, Z. L. Glick, S. Lehtola, and J. P. Misiewicz

    -----------------------------------------------------------------------


    Psi4 started on: Tuesday, 23 February 2021 01:35PM

    Process ID: 238188
    Host:       c4-20.compute.lan
    PSIDATADIR: /apps/gb/PSI4/1.4.0/share/psi4
    Memory:     500.0 MiB
    Threads:    1
    
  ==> Input File <==

--------------------------------------------------------------------------
memory 10 GB
molecule {
0 2
O
H 1 R1
R1 = 0.9478992047
}
set {
basis aug-cc-pv5z
e_convergence 10
g_convergence gau_verytight
reference uhf
scf_type pk
mp2_type conv
}

set ccenergy {
e_convergence 10
r_convergence 10
}

optimize("ccsd")

--------------------------------------------------------------------------

  Memory set to   9.313 GiB by Python driver.
gradient() will perform analytic gradient computation.

*** tstart() called on c4-20.compute.lan
*** at Tue Feb 23 13:35:03 2021

   => Loading Basis Set <=

    Name: AUG-CC-PV5Z
    Role: ORBITAL
    Keyword: BASIS
    atoms 1 entry O          line   541 file /apps/gb/PSI4/1.4.0/share/psi4/basis/aug-cc-pv5z.gbs 
    atoms 2 entry H          line    42 file /apps/gb/PSI4/1.4.0/share/psi4/basis/aug-cc-pv5z.gbs 


         ---------------------------------------------------------
                                   SCF
               by Justin Turney, Rob Parrish, Andy Simmonett
                          and Daniel G. A. Smith
                              UHF Reference
                        1 Threads,   9536 MiB Core
         ---------------------------------------------------------

  ==> Geometry <==

    Molecular point group: c2v
    Full point group: C_inf_v

    Geometry (in Angstrom), charge = 0, multiplicity = 2:

       Center              X                  Y                   Z               Mass       
    ------------   -----------------  -----------------  -----------------  -----------------
         O            0.000000000000     0.000000000000    -0.056186036256    15.994914619570
         H            0.000000000000     0.000000000000     0.891713168444     1.007825032230

  Running in c2v symmetry.

  Rotational constants: A = ************  B =     19.78901  C =     19.78901 [cm^-1]
  Rotational constants: A = ************  B = 593259.52428  C = 593259.52428 [MHz]
  Nuclear repulsion =    4.466105324668810

  Charge       = 0
  Multiplicity = 2
  Electrons    = 9
  Nalpha       = 5
  Nbeta        = 4

  ==> Algorithm <==

  SCF Algorithm Type is PK.
  DIIS enabled.
  MOM disabled.
  Fractional occupation disabled.
  Guess Type is SAD.
  Energy threshold   = 1.00e-10
  Density threshold  = 1.00e-10
  Integral threshold = 0.00e+00

  ==> Primary Basis <==

  Basis Set: AUG-CC-PV5Z
    Blend: AUG-CC-PV5Z
    Number of shells: 47
    Number of basis function: 207
    Number of Cartesian functions: 287
    Spherical Harmonics?: true
    Max angular momentum: 5

  ==> Pre-Iterations <==

   -------------------------------------------------------
    Irrep   Nso     Nmo     Nalpha   Nbeta   Ndocc  Nsocc
   -------------------------------------------------------
     A1        77      77       0       0       0       0
     A2        30      30       0       0       0       0
     B1        50      50       0       0       0       0
     B2        50      50       0       0       0       0
   -------------------------------------------------------
    Total     207     207       5       4       4       1
   -------------------------------------------------------

  ==> Integral Setup <==

  Using in-core PK algorithm.
   Calculation information:
      Number of atoms:                   2
      Number of AO shells:              47
      Number of primitives:             71
      Number of atomic orbitals:       287
      Number of basis functions:       207

      Integral cutoff                 1.00e-12
      Number of threads:                 1

  Performing in-core PK
  Using 463476312 doubles for integral storage.
  We computed 636756 shell quartets total.
  Whereas there are 636756 unique shell quartets.

  ==> DiskJK: Disk-Based J/K Matrices <==

    J tasked:                  Yes
    K tasked:                  Yes
    wK tasked:                  No
    Memory [MiB]:             7152
    Schwarz Cutoff:          1E-12

    OpenMP threads:              1

  Minimum eigenvalue in the overlap matrix is 1.7546156464E-05.
  Using Symmetric Orthogonalization.

  SCF Guess: Superposition of Atomic Densities via on-the-fly atomic UHF.

  ==> Iterations <==

                        Total Energy        Delta E     RMS |[F,P]|

   @UHF iter SAD:   -74.66734640449775   -7.46673e+01   0.00000e+00 
   @UHF iter   1:   -75.40457396110338   -7.37228e-01   2.17622e-03 DIIS
   @UHF iter   2:   -75.42498154829281   -2.04076e-02   8.31977e-04 DIIS
   @UHF iter   3:   -75.42773077958657   -2.74923e-03   2.43148e-04 DIIS
   @UHF iter   4:   -75.42817172348313   -4.40944e-04   7.41707e-05 DIIS
   @UHF iter   5:   -75.42824372633780   -7.20029e-05   3.26299e-05 DIIS
   @UHF iter   6:   -75.42826291349428   -1.91872e-05   1.16058e-05 DIIS
   @UHF iter   7:   -75.42826588877719   -2.97528e-06   3.85038e-06 DIIS
   @UHF iter   8:   -75.42826622945253   -3.40675e-07   8.26475e-07 DIIS
   @UHF iter   9:   -75.42826624094189   -1.14894e-08   2.73381e-07 DIIS
   @UHF iter  10:   -75.42826624232183   -1.37993e-09   4.53848e-08 DIIS
   @UHF iter  11:   -75.42826624235656   -3.47313e-11   5.55088e-09 DIIS
   @UHF iter  12:   -75.42826624235693   -3.69482e-13   1.24009e-09 DIIS
   @UHF iter  13:   -75.42826624235693    0.00000e+00   2.81627e-10 DIIS
   @UHF iter  14:   -75.42826624235690    2.84217e-14   6.25231e-11 DIIS
  Energy and wave function converged.


  ==> Post-Iterations <==

   @Spin Contamination Metric:   6.884851174E-03
   @S^2 Expected:                7.500000000E-01
   @S^2 Observed:                7.568848512E-01
   @S   Expected:                5.000000000E-01
   @S   Observed:                5.000000000E-01

    Orbital Energies [Eh]
    ---------------------

    Alpha Occupied:                                                       

       1A1   -20.635987     2A1    -1.395592     3A1    -0.689104  
       1B2    -0.659782     1B1    -0.562701  

    Alpha Virtual:                                                        

       4A1     0.024207     5A1     0.088839     2B2     0.103391  
       2B1     0.108749     6A1     0.138176     3B2     0.179799  
       7A1     0.182579     3B1     0.183117     8A1     0.288192  
       9A1     0.399245     1A2     0.399925    10A1     0.425244  
       4B2     0.453843     4B1     0.469363     5B2     0.474404  
       5B1     0.484464    11A1     0.487903    12A1     0.513862  
       2A2     0.527480    13A1     0.527793     6B2     0.547098  
       6B1     0.557079    14A1     0.667232     7B2     0.972736  
       7B1     0.975070     8B2     0.976067     8B1     0.990951  
      15A1     0.995634    16A1     1.081128     9B2     1.128536  
      17A1     1.138375     9B1     1.140988     3A2     1.168217  
      18A1     1.171056     4A2     1.209157    19A1     1.210494  
      10B2     1.245443    20A1     1.249484    10B1     1.254322  
      11B2     1.278549    11B1     1.278637     5A2     1.325577  
      21A1     1.325898    22A1     1.403824    12B2     1.472270  
      12B1     1.502084    23A1     1.720487    13B2     1.864826  
      13B1     1.903851    24A1     2.205287     6A2     2.302761  
      25A1     2.303727    14B2     2.314512    14B1     2.329733  
       7A2     2.568420    26A1     2.568420    27A1     2.614625  
      15B2     2.649170    15B1     2.672506    28A1     2.722475  
      16B2     2.835435    16B1     2.835488    17B2     2.912958  
      17B1     2.917178    29A1     2.917867    18B2     2.926477  
       8A2     2.932165    30A1     2.944279    18B1     2.946855  
       9A2     3.039763    31A1     3.039934    32A1     3.129168  
      10A2     3.129168    33A1     3.144006    11A2     3.187534  
      34A1     3.187616    19B2     3.284312    19B1     3.305171  
      20B2     3.322292    20B1     3.322342    35A1     3.454439  
      21B2     3.558564    21B1     3.582590    36A1     3.654646  
      12A2     3.832635    37A1     3.834352    38A1     4.250714  
      22B2     4.546547    22B1     4.583921    23B2     4.694832  
      23B1     4.694885    24B2     4.755724    24B1     4.807168  
      39A1     5.080055    13A2     5.431758    40A1     5.431938  
      41A1     5.631394    25B2     5.801518    25B1     5.826457  
      14A2     5.916513    42A1     5.916740    26B2     6.166516  
      26B1     6.184722    27B2     6.184722    27B1     6.188868  
      43A1     6.289046    15A2     6.468814    44A1     6.468814  
      28B2     6.658257    28B1     6.705342    45A1     6.914785  
      46A1     7.085922    16A2     7.086000    47A1     7.105800  
      29B2     7.157995    29B1     7.161557    30B2     7.184447  
      17A2     7.188925    48A1     7.194602    30B1     7.213308  
      31B2     7.238303    31B1     7.239718    32B2     7.602118  
      32B1     7.602143    49A1     7.725706    18A2     7.727527  
      50A1     7.809246    51A1     7.904478    19A2     7.904930  
      33B2     8.538321    33B1     8.577465    52A1     8.586663  
      53A1     8.839921    34B2     9.162721    34B1     9.208122  
      20A2     9.449805    54A1     9.450307    55A1    10.398063  
      35B2    10.458917    35B1    10.505572    56A1    12.812248  
      36B2    12.982906    36B1    12.982906    21A2    13.144590  
      57A1    13.144590    58A1    13.528458    22A2    13.528595  
      37B2    13.951335    37B1    13.951338    59A1    14.107035  
      23A2    14.135507    60A1    14.135514    38B2    14.238047  
      38B1    14.255536    39B2    14.502819    39B1    14.519769  
      61A1    14.765049    62A1    15.632581    24A2    15.768204  
      63A1    15.769915    40B2    15.991714    40B1    16.031743  
      41B2    16.210631    41B1    16.210631    25A2    16.355895  
      64A1    16.355895    42B2    16.699499    42B1    16.750694  
      65A1    16.871310    43B2    16.916600    43B1    16.916608  
      66A1    17.910007    26A2    17.918831    44B2    17.947401  
      44B1    17.981636    67A1    17.997524    45B2    18.169873  
      45B1    18.198401    68A1    18.718628    69A1    19.068615  
      27A2    19.068616    46B2    19.175306    46B1    19.175314  
      47B2    19.223941    47B1    19.223952    70A1    19.601417  
      28A2    19.610412    71A1    19.697852    29A2    20.099373  
      72A1    20.100534    48B2    20.598501    48B1    20.652989  
      73A1    21.249636    30A2    22.425804    74A1    22.426389  
      49B2    23.176012    49B1    23.227110    50B2    24.263728  
      50B1    24.309358    75A1    26.349032    76A1    26.398301  
      77A1    65.083261  

    Beta Occupied:                                                        

       1A1   -20.596494     2A1    -1.238609     3A1    -0.644781  
       1B1    -0.514867  

    Beta Virtual:                                                         

       4A1     0.025038     1B2     0.055661     5A1     0.089707  
       2B1     0.109788     6A1     0.141210     2B2     0.147113  
       3B1     0.183082     7A1     0.184286     3B2     0.191280  
       8A1     0.292945     1A2     0.405073     9A1     0.405123  
      10A1     0.428291     4B1     0.472893     4B2     0.479912  
       5B1     0.484336    11A1     0.490931     5B2     0.507994  
      12A1     0.519144     2A2     0.527836    13A1     0.528093  
       6B1     0.558618     6B2     0.576985    14A1     0.676999  
       7B1     0.978911     7B2     0.978927     8B1     0.991863  
      15A1     1.002605     8B2     1.005763    16A1     1.087045  
       9B2     1.132747     9B1     1.140372    17A1     1.147554  
       3A2     1.174504    18A1     1.175090     4A2     1.231062  
      19A1     1.231214    10B2     1.253501    10B1     1.254684  
      20A1     1.255713    11B2     1.279125    11B1     1.279129  
       5A2     1.339537    21A1     1.340041    22A1     1.414521  
      12B1     1.507743    12B2     1.527725    23A1     1.728794  
      13B1     1.914635    13B2     1.943306    24A1     2.212457  
       6A2     2.310685    25A1     2.310946    14B2     2.320566  
      14B1     2.328257    26A1     2.574771     7A2     2.574771  
      27A1     2.626403    15B2     2.670539    15B1     2.674993  
      28A1     2.731702    16B1     2.856198    16B2     2.856200  
      17B2     2.923920    17B1     2.924655    29A1     2.932396  
       8A2     2.939046    18B2     2.940189    18B1     2.947888  
      30A1     2.948373     9A2     3.054195    31A1     3.054336  
      32A1     3.131177    10A2     3.131177    33A1     3.153383  
      11A2     3.242505    34A1     3.243510    19B1     3.308841  
      19B2     3.310377    20B1     3.323636    20B2     3.323647  
      35A1     3.468820    21B2     3.571019    21B1     3.584502  
      36A1     3.665327    12A2     3.848080    37A1     3.848390  
      38A1     4.259539    22B2     4.588543    22B1     4.591629  
      23B2     4.698458    23B1     4.698461    24B1     4.820703  
      24B2     4.833385    39A1     5.098849    40A1     5.437448  
      13A2     5.437470    41A1     5.638367    25B2     5.818517  
      25B1     5.828550    14A2     5.925091    42A1     5.925121  
      26B2     6.175269    26B1     6.189221    27B2     6.196310  
      27B1     6.196310    43A1     6.298151    44A1     6.478727  
      15A2     6.478727    28B2     6.703111    28B1     6.714932  
      45A1     6.938929    46A1     7.110449    16A2     7.110546  
      47A1     7.115101    29B2     7.176221    29B1     7.179337  
      30B2     7.195467    17A2     7.199636    48A1     7.201955  
      30B1     7.216102    31B2     7.262571    31B1     7.262699  
      32B2     7.633522    32B1     7.633524    49A1     7.756192  
      18A2     7.757258    50A1     7.816447    19A2     7.948104  
      51A1     7.948381    33B2     8.559620    33B1     8.581710  
      52A1     8.602042    53A1     8.856733    34B2     9.198921  
      34B1     9.216824    20A2     9.488128    54A1     9.488215  
      55A1    10.408407    35B2    10.502602    35B1    10.515309  
      56A1    12.841851    36B2    12.983513    36B1    12.983513  
      57A1    13.144992    21A2    13.144992    58A1    13.531687  
      22A2    13.531770    37B2    13.953401    37B1    13.953403  
      59A1    14.112678    23A2    14.134400    60A1    14.134402  
      38B2    14.242929    38B1    14.255412    39B2    14.507831  
      39B1    14.520106    61A1    14.768801    62A1    15.638475  
      24A2    15.774382    63A1    15.775232    40B2    16.025510  
      40B1    16.039191    41B2    16.235821    41B1    16.235821  
      25A2    16.376537    64A1    16.376537    42B2    16.746908  
      42B1    16.761660    65A1    16.874264    43B2    16.932881  
      43B1    16.932884    66A1    17.929740    26A2    17.934139  
      44B2    17.959077    44B1    17.983866    67A1    18.004194  
      45B2    18.183306    45B1    18.201156    68A1    18.741338  
      69A1    19.106995    27A2    19.106995    46B2    19.209033  
      46B1    19.209034    47B2    19.268537    47B1    19.268539  
      70A1    19.631910    28A2    19.636412    71A1    19.704822  
      29A2    20.127070    72A1    20.127465    48B2    20.632431  
      48B1    20.663013    73A1    21.265895    30A2    22.471613  
      74A1    22.471717    49B2    23.209027    49B1    23.235762  
      50B2    24.293661    50B1    24.317650    75A1    26.356029  
      76A1    26.409596    77A1    65.098627  

    Final Occupation by Irrep:
             A1    A2    B1    B2 
    DOCC [     3,    0,    1,    0 ]
    SOCC [     0,    0,    0,    1 ]

  @UHF Final Energy:   -75.42826624235690

   => Energetics <=

    Nuclear Repulsion Energy =              4.4661053246688098
    One-Electron Energy =                -112.8508254126096375
    Two-Electron Energy =                  32.9564538455839298
    Total Energy =                        -75.4282662423568979

  UHF NO Occupations:
  HONO-2 :    2 A1 1.9992943
  HONO-1 :    3 A1 1.9978812
  HONO-0 :    1 B2 1.0000000
  LUNO+0 :    4 A1 0.0021188
  LUNO+1 :    5 A1 0.0007057
  LUNO+2 :    2 B1 0.0006193
  LUNO+3 :    6 A1 0.0000013


Computation Completed


Properties will be evaluated at   0.000000,   0.000000,   0.000000 [a0]

Properties computed using the SCF density matrix

  Nuclear Dipole Moment: [e a0]
     X:     0.0000      Y:     0.0000      Z:     0.8357

  Electronic Dipole Moment: [e a0]
     X:     0.0000      Y:     0.0000      Z:    -0.1512

  Dipole Moment: [e a0]
     X:     0.0000      Y:     0.0000      Z:     0.6845     Total:     0.6845

  Dipole Moment: [D]
     X:     0.0000      Y:     0.0000      Z:     1.7398     Total:     1.7398


*** tstop() called on c4-20.compute.lan at Tue Feb 23 13:35:46 2021
Module time:
	user time   =      39.45 seconds =       0.66 minutes
	system time =       2.91 seconds =       0.05 minutes
	total time  =         43 seconds =       0.72 minutes
Total time:
	user time   =      39.45 seconds =       0.66 minutes
	system time =       2.91 seconds =       0.05 minutes
	total time  =         43 seconds =       0.72 minutes
 MINTS: Wrapper to libmints.
   by Justin Turney

   Calculation information:
      Number of threads:                 1
      Number of atoms:                   2
      Number of AO shells:              47
      Number of SO shells:              47
      Number of primitives:             71
      Number of atomic orbitals:       287
      Number of basis functions:       207

      Number of irreps:                  4
      Integral cutoff                 0.00e+00
      Number of functions per irrep: [  77   30   50   50 ]

 OEINTS: Overlap, kinetic, potential, dipole, and quadrupole integrals
         stored in file 35.

      Computing two-electron integrals...done
      Computed 53502122 non-zero two-electron integrals.
        Stored in file 33.


*** tstart() called on c4-20.compute.lan
*** at Tue Feb 23 13:36:02 2021


	Wfn Parameters:
	--------------------
	Wavefunction         = CCSD
	Number of irreps     = 4
	Number of MOs        = 207
	Number of active MOs = 207
	AO-Basis             = NONE
	Semicanonical        = false
	Reference            = UHF
	Print Level          = 1

	IRREP	# MOs	# FZDC	# DOCC	# SOCC	# VIRT	# FZVR
	-----	-----	------	------	------	------	------
	 A1	   77	    0	    3	    0	    74	    0
	 A2	   30	    0	    0	    0	    30	    0
	 B1	   50	    0	    1	    0	    49	    0
	 B2	   50	    0	    0	    1	    49	    0
	Transforming integrals...
	IWL integrals will be deleted.
	(OO|OO)...
	Presorting SO-basis two-electron integrals.
	Sorting File: SO Ints (nn|nn) nbuckets = 1
	Transforming the one-electron integrals and constructing Fock matrices
	Starting AA/AB first half-transformation.
	Sorting AA/AB half-transformed integrals.
	Starting BB first half-transformation.
	Sorting BB half-transformed integrals.
	First half integral transformation complete.
	Starting AA second half-transformation.
	Starting AB second half-transformation.
	Starting BB second half-transformation.
	Two-electron integral transformation complete.
	(OO|OV)...
	Starting AA second half-transformation.
	Starting AB second half-transformation.
	Starting BB second half-transformation.
	Two-electron integral transformation complete.
	(OO|VV)...
	Starting AA second half-transformation.
	Starting AB second half-transformation.
	Starting BB second half-transformation.
	Two-electron integral transformation complete.
	(OV|OO)...
	Starting AA/AB first half-transformation.
	Sorting AA/AB half-transformed integrals.
	Starting BB first half-transformation.
	Sorting BB half-transformed integrals.
	First half integral transformation complete.
	Starting AA second half-transformation.
	Starting AB second half-transformation.
	Starting BB second half-transformation.
	Two-electron integral transformation complete.
	(OV|OV)...
	Starting AA second half-transformation.
	Starting AB second half-transformation.
	Starting BB second half-transformation.
	Two-electron integral transformation complete.
	(OV|VV)...
	Starting AA second half-transformation.
	Starting AB second half-transformation.
	Starting BB second half-transformation.
	Two-electron integral transformation complete.
	(VV|OO)...
	Starting AA/AB first half-transformation.
	Sorting AA/AB half-transformed integrals.
	Starting BB first half-transformation.
	Sorting BB half-transformed integrals.
	First half integral transformation complete.
	Starting AA second half-transformation.
	Starting AB second half-transformation.
	Starting BB second half-transformation.
	Two-electron integral transformation complete.
	(VV|OV)...
	Starting AA second half-transformation.
	Starting AB second half-transformation.
	Starting BB second half-transformation.
	Two-electron integral transformation complete.
	(VV|VV)...
	Starting AA second half-transformation.
	Starting AB second half-transformation.
	Starting BB second half-transformation.
	Two-electron integral transformation complete.
	Frozen core energy     =      0.00000000000000

	Size of irrep 0 of <AB|CD> integrals:     30.118 (MW) /    240.945 (MB)
	Size of irrep 1 of <AB|CD> integrals:     21.354 (MW) /    170.829 (MB)
	Size of irrep 2 of <AB|CD> integrals:     25.969 (MW) /    207.754 (MB)
	Size of irrep 3 of <AB|CD> integrals:     25.969 (MW) /    207.754 (MB)
	Total:                                   103.410 (MW) /    827.282 (MB)

	Size of irrep 0 of <ab|cd> integrals:     30.658 (MW) /    245.267 (MB)
	Size of irrep 1 of <ab|cd> integrals:     21.809 (MW) /    174.471 (MB)
	Size of irrep 2 of <ab|cd> integrals:     26.276 (MW) /    210.207 (MB)
	Size of irrep 3 of <ab|cd> integrals:     26.729 (MW) /    213.831 (MB)
	Total:                                   105.472 (MW) /    843.776 (MB)

	Size of irrep 0 of <Ab|Cd> integrals:    126.046 (MW) /   1008.364 (MB)
	Size of irrep 1 of <Ab|Cd> integrals:     86.323 (MW) /    690.581 (MB)
	Size of irrep 2 of <Ab|Cd> integrals:    104.489 (MW) /    835.914 (MB)
	Size of irrep 3 of <Ab|Cd> integrals:    105.391 (MW) /    843.126 (MB)
	Total:                                   422.248 (MW) /   3377.986 (MB)

	Size of irrep 0 of <IA|BC> integrals:      3.577 (MW) /     28.616 (MB)
	Size of irrep 1 of <IA|BC> integrals:      1.737 (MW) /     13.900 (MB)
	Size of irrep 2 of <IA|BC> integrals:      2.558 (MW) /     20.466 (MB)
	Size of irrep 3 of <IA|BC> integrals:      2.558 (MW) /     20.466 (MB)
	Total:                                    10.431 (MW) /     83.447 (MB)

	Size of irrep 0 of <ia|bc> integrals:      3.056 (MW) /     24.449 (MB)
	Size of irrep 1 of <ia|bc> integrals:      1.308 (MW) /     10.461 (MB)
	Size of irrep 2 of <ia|bc> integrals:      2.266 (MW) /     18.126 (MB)
	Size of irrep 3 of <ia|bc> integrals:      1.861 (MW) /     14.890 (MB)
	Total:                                     8.491 (MW) /     67.924 (MB)

	Size of irrep 0 of <Ia|Bc> integrals:      3.604 (MW) /     28.831 (MB)
	Size of irrep 1 of <Ia|Bc> integrals:      1.756 (MW) /     14.048 (MB)
	Size of irrep 2 of <Ia|Bc> integrals:      2.566 (MW) /     20.526 (MB)
	Size of irrep 3 of <Ia|Bc> integrals:      2.608 (MW) /     20.861 (MB)
	Total:                                    10.533 (MW) /     84.265 (MB)

	Size of irrep 0 of <iA|bC> integrals:      3.043 (MW) /     24.340 (MB)
	Size of irrep 1 of <iA|bC> integrals:      1.291 (MW) /     10.332 (MB)
	Size of irrep 2 of <iA|bC> integrals:      2.259 (MW) /     18.072 (MB)
	Size of irrep 3 of <iA|bC> integrals:      1.817 (MW) /     14.537 (MB)
	Total:                                     8.410 (MW) /     67.281 (MB)

	Size of irrep 0 of tIjAb amplitudes:       0.112 (MW) /      0.898 (MB)
	Size of irrep 1 of tIjAb amplitudes:       0.009 (MW) /      0.074 (MB)
	Size of irrep 2 of tIjAb amplitudes:       0.061 (MW) /      0.491 (MB)
	Size of irrep 3 of tIjAb amplitudes:       0.031 (MW) /      0.246 (MB)
	Total:                                     0.214 (MW) /      1.710 (MB)

	Nuclear Rep. energy          =      4.46610532466881
	SCF energy                   =    -75.42826624235690
	One-electron energy          =   -112.85082540090596
	Two-electron (AA) energy     =      7.76344330463628
	Two-electron (BB) energy     =      4.65014254451931
	Two-electron (AB) energy     =     20.54286798472465
	Two-electron energy          =     32.95645383388025
	Reference energy             =    -75.42826624235690

*** tstop() called on c4-20.compute.lan at Tue Feb 23 13:37:58 2021
Module time:
	user time   =      51.69 seconds =       0.86 minutes
	system time =      54.91 seconds =       0.92 minutes
	total time  =        116 seconds =       1.93 minutes
Total time:
	user time   =     106.33 seconds =       1.77 minutes
	system time =      58.67 seconds =       0.98 minutes
	total time  =        175 seconds =       2.92 minutes
            **************************
            *                        *
            *        CCENERGY        *
            *                        *
            **************************

    Nuclear Rep. energy (wfn)     =    4.466105324668810
    SCF energy          (wfn)     =  -75.428266242356898
    Reference energy    (file100) =  -75.428266242356898

    Input parameters:
    -----------------
    Wave function   =     CCSD
    Reference wfn   =     UHF
    Brueckner       =     No
    Memory (Mbytes) =     10000.0
    Maxiter         =     50
    R_Convergence   =     1.0e-10
    E_Convergence   =     1.0e-10
    Restart         =     Yes
    DIIS            =     Yes
    AO Basis        =     NONE
    ABCD            =     NEW
    Cache Level     =     2
    Cache Type      =     LRU
    Print Level     =     1
    Num. of threads =     1
    # Amps to Print =     10
    Print MP2 Amps? =     No
    Analyze T2 Amps =     No
    Print Pair Ener =     No
    Local CC        =     No
    SCS-MP2         =     False
    SCSN-MP2        =     False
    SCS-CCSD        =     False

MP2 correlation energy -0.2620229846084614
                Solving CC Amplitude Equations
                ------------------------------
  Iter             Energy              RMS        T1Diag      D1Diag    New D1Diag    D2Diag
  ----     ---------------------    ---------   ----------  ----------  ----------   --------
     0        -0.262022984608461    0.000e+00    0.000000    0.000000    0.000000    0.000000
     1        -0.267577345866370    3.509e-02    0.008193    0.000000    0.000000    0.000000
     2        -0.271747891315926    1.145e-02    0.009301    0.000000    0.000000    0.000000
     3        -0.272626896674946    5.584e-03    0.010794    0.000000    0.000000    0.000000
     4        -0.272527648435003    1.899e-03    0.011076    0.000000    0.000000    0.000000
     5        -0.272537788785633    8.858e-04    0.011162    0.000000    0.000000    0.000000
     6        -0.272556722151820    3.130e-04    0.011152    0.000000    0.000000    0.000000
     7        -0.272556691417569    1.031e-04    0.011139    0.000000    0.000000    0.000000
     8        -0.272556727969617    3.669e-05    0.011136    0.000000    0.000000    0.000000
     9        -0.272556962884165    1.179e-05    0.011136    0.000000    0.000000    0.000000
    10        -0.272556745654031    4.701e-06    0.011136    0.000000    0.000000    0.000000
    11        -0.272556838905827    1.900e-06    0.011136    0.000000    0.000000    0.000000
    12        -0.272556836280222    6.039e-07    0.011136    0.000000    0.000000    0.000000
    13        -0.272556847017906    2.285e-07    0.011136    0.000000    0.000000    0.000000
    14        -0.272556852312149    8.982e-08    0.011136    0.000000    0.000000    0.000000
    15        -0.272556852322935    3.666e-08    0.011136    0.000000    0.000000    0.000000
    16        -0.272556852468759    1.629e-08    0.011136    0.000000    0.000000    0.000000
    17        -0.272556852478623    7.542e-09    0.011136    0.000000    0.000000    0.000000
    18        -0.272556852445498    3.280e-09    0.011136    0.000000    0.000000    0.000000
    19        -0.272556852514972    1.376e-09    0.011136    0.000000    0.000000    0.000000
    20        -0.272556852546529    5.344e-10    0.011136    0.000000    0.000000    0.000000
    21        -0.272556852548375    2.254e-10    0.011136    0.000000    0.000000    0.000000
    22        -0.272556852549595    9.725e-11    0.011136    0.000000    0.000000    0.000000

    Iterations converged.


    Largest TIA Amplitudes:
              4 155        -0.0102961439
              4 153        -0.0097345321
              3 104        -0.0093059854
              3 106        -0.0089401344
              4 154        -0.0057758180
              3 105        -0.0057172786
              2  20        -0.0036757732
              4 158        -0.0032417115
              3 110        -0.0031832926
              1   2         0.0031424359

    Largest Tia Amplitudes:
              3 104        -0.0069199370
              3 106        -0.0057354533
              1  10        -0.0052103022
              3 105        -0.0050711426
              2  18        -0.0045733952
              1   6        -0.0043114235
              2  20        -0.0042805376
              1  18        -0.0041787085
              1   4         0.0041384969
              3 115         0.0039103564

    Largest TIJAB Amplitudes:
      4   3 155 106        -0.0095418521
      4   2 155  10         0.0090679926
      3   2 106  10         0.0090394099
      4   2 155   4        -0.0081641015
      3   2 106   4        -0.0081216497
      3   2 110   6         0.0076361768
      4   2 164  10         0.0073669831
      3   2 115  10         0.0072572986
      4   3 164 115        -0.0071659354
      4   3  77  15        -0.0070741783

    Largest Tijab Amplitudes:
      3   2 106  10         0.0089867629
      3   2 106   4        -0.0079159318
      3   2 110   6         0.0076471268
      3   2 110  10         0.0072075726
      3   2 115  10         0.0070603680
      3   2 110  11        -0.0068379467
      3   2 106   6         0.0058176696
      3   2 114  11         0.0055466345
      3   1 153  77         0.0053128482
      3   2 110   4        -0.0052662117

    Largest TIjAb Amplitudes:
      2   2  10  10        -0.0200091006
      2   2   4  10         0.0163030212
      2   2   6   6        -0.0162541683
      2   2  10   4         0.0156990815
      3   3 106 106        -0.0154781239
      2   2   4   4        -0.0141167439
      3   3 115 115        -0.0140280718
      2   2   6  10        -0.0138896685
      2   2  10   6        -0.0137430742
      2   2  11  11        -0.0134308736

    SCF energy       (wfn)                    =  -75.428266242356898
    Reference energy (file100)                =  -75.428266242356898

    Opposite-spin MP2 correlation energy      =   -0.205648006350830
    Same-spin MP2 correlation energy          =   -0.056374978257631
    MP2 correlation energy                    =   -0.262022984608461
      * MP2 total energy                      =  -75.690289226965362

    Opposite-spin CCSD correlation energy     =   -0.219057077147989
    Same-spin CCSD correlation energy         =   -0.053499775401604
    CCSD correlation energy                   =   -0.272556852549595
      * CCSD total energy                     =  -75.700823094906497


			**************************
			*                        *
			*         CCHBAR         *
			*                        *
			**************************


			**************************
			*        CCLAMBDA        *
			**************************


	Nuclear Rep. energy (wfn)     =    4.466105324668810
	Reference           (wfn)     =                    2
	SCF energy          (wfn)     =  -75.428266242356898
	Reference energy    (CC_INFO) =  -75.428266242356898
	CCSD energy         (CC_INFO) =   -0.272556852549595
	Total CCSD energy   (CC_INFO) =  -75.700823094906497

	Input parameters:
	-----------------
	Maxiter           =     50
	Convergence       = 1.0e-07
	Restart           =     No
	Cache Level       =     2
	Model III         =     No
	DIIS              =     Yes
	AO Basis          =     No
	ABCD              =     NEW
	Local CC          =     No
	Parameters for left-handed eigenvectors:
	    Irr   Root  Ground-State?    EOM energy        R0
	  1   0     0        Yes       0.0000000000   1.0000000000
	Labels for eigenvector 1:
	LIA 0 -1, Lia 0 -1, LIJAB 0 -1, Lijab 0 -1, LIjAb 0 -1, 2LIjAb - LIjbA 0 -1
	Symmetry of left-hand state: B2
	Symmetry of left-hand eigenvector: A1

	          Solving Lambda Equations
	          ------------------------
	Iter     PseudoEnergy or Norm         RMS  
	----     ---------------------     --------
	   0        -0.272563891075177    0.000e+00
	   1        -0.267662876926896    7.828e-03
	   2        -0.267252075484497    1.755e-03
	   3        -0.267155747536860    8.461e-04
	   4        -0.267153021323944    2.421e-04
	   5        -0.267159241689752    7.510e-05
	   6        -0.267157399600886    2.827e-05
	   7        -0.267156546723699    1.284e-05
	   8        -0.267156672478218    4.534e-06
	   9        -0.267156651686340    1.399e-06
	  10        -0.267156647698338    4.760e-07
	  11        -0.267156633217250    1.745e-07
	  12        -0.267156633212682    6.197e-08

	Largest LIA Amplitudes:
	          4 155        -0.0078124824
	          4 153        -0.0075205230
	          3 104        -0.0067731466
	          3 106        -0.0063706245
	          4 154        -0.0044025794
	          3 105        -0.0040885661
	          2  20        -0.0031630209
	          1   2         0.0025880547
	          2   6         0.0023430267
	          1   8         0.0023173354

	Largest Lia Amplitudes:
	          1  10        -0.0049447773
	          1   6        -0.0041837185
	          2  18        -0.0041557860
	          3 104        -0.0040662624
	          1  18        -0.0039833914
	          1   4         0.0039044496
	          2  10        -0.0038492053
	          2  20        -0.0038215209
	          3 115         0.0036700653
	          1  15        -0.0033616092

	Largest LIJAB Amplitudes:
	  4   3 155 106        -0.0093834938
	  4   2 155  10         0.0088936090
	  3   2 106  10         0.0088080749
	  4   2 155   4        -0.0079733972
	  3   2 106   4        -0.0078810236
	  3   2 110   6         0.0073919038
	  4   2 164  10         0.0072415025
	  3   2 115  10         0.0071119644
	  4   3 164 115        -0.0070815299
	  4   3  77  15        -0.0068918173

	Largest Lijab Amplitudes:
	  3   2 106  10         0.0086702182
	  3   2 106   4        -0.0075947499
	  3   2 110   6         0.0073714835
	  3   2 110  10         0.0069871361
	  3   2 115  10         0.0068952310
	  3   2 110  11        -0.0066063296
	  3   2 106   6         0.0055872037
	  3   2 114  11         0.0053615965
	  3   1 153  77         0.0051719943
	  3   2 115   4        -0.0050958227

	Largest LIjAb Amplitudes:
	  2   2  10  10        -0.0195158758
	  2   2   4  10         0.0158643299
	  2   2   6   6        -0.0157027969
	  2   2  10   4         0.0152794332
	  3   3 106 106        -0.0150770467
	  3   3 115 115        -0.0138116282
	  2   2   4   4        -0.0136834610
	  2   2   6  10        -0.0134679302
	  2   2  10   6        -0.0133304181
	  2   2  11  11        -0.0130380504

	Iterations converged.

	Overlap <L|e^T> =        0.94648909968

			**************************
			*                        *
			*        CCDENSITY       *
			*                        *
			**************************


	Input parameters:
	-----------------
	Wave function    =   CCSD
	Reference wfn    =   UHF
	Dertype          = 1
	Tolerance        = 1.0e-14
	Cache Level      = 2
	AO Basis         = No
	OPDM Only        = No
	Relax OPDM       = Yes
	Compute Xi       = No
	Use Zeta         = No
	Xi connected     = Yes
	Compute NO       = No

	Nuclear Rep. energy (wfn)     =    4.466105324668810
	SCF energy          (wfn)     =  -75.428266242356898
	Reference energy    (file100) =  -75.428266242356898
	CCSD energy         (CC_INFO) =   -0.272556852549595
	Total CCSD energy   (CC_INFO) =  -75.700823094906497
	Number of States = 1

	Ground?  State     EOM Energy       R0
	  Yes     0 A1    0.0000000000   1.00000000
  Cartesian Displacement SALCs
  By SALC:
  Number of SALCs: 2, nirreps: A1
  Project out translations: False
  Project out rotations: False
	irrep = 0, ncomponent = 1
		0: atom 0, direction z, coef 1.000000
	irrep = 0, ncomponent = 1
		0: atom 1, direction z, coef 1.000000

  By Atomic Center:
  Number of atomic centers: 2
   Atomic Center 0:
	x component, size = 0
	y component, size = 0
	z component, size = 1
		0: salc 0, irrep 0, coef 1.000000
   Atomic Center 1:
	x component, size = 0
	y component, size = 0
	z component, size = 1
		0: salc 1, irrep 0, coef 1.000000

    Molecular point group: c2v
    Full point group: C_inf_v

    Geometry (in Bohr), charge = 0, multiplicity = 2:

       Center              X                  Y                   Z       
    ------------   -----------------  -----------------  -----------------
         O            0.000000000000     0.000000000000    -0.106176220599
         H            0.000000000000     0.000000000000     1.685093670823

	Presorting MO-basis TPDMs.
	Sorting File: MO TPDM (AA|AA) nbuckets = 1
	Sorting File: MO TPDM (AA|aa) nbuckets = 1
	Sorting File: MO TPDM (aa|aa) nbuckets = 1
	Starting first half-transformation.
	Sorting half-transformed TPDMs.
	First half integral transformation complete.


  -Nuclear Repulsion Energy 1st Derivatives:
     Atom            X                  Y                   Z
    ------   -----------------  -----------------  -----------------
       1        0.000000000000     0.000000000000     2.493262096379
       2        0.000000000000     0.000000000000    -2.493262096379


  -Core Hamiltonian Gradient:
     Atom            X                  Y                   Z
    ------   -----------------  -----------------  -----------------
       1        0.000000000000     0.000000000000    -4.944878468891
       2        0.000000000000     0.000000000000     4.944878468891


  -Lagrangian contribution to gradient:
     Atom            X                  Y                   Z
    ------   -----------------  -----------------  -----------------
       1        0.000000000000     0.000000000000     0.224412613281
       2        0.000000000000     0.000000000000    -0.224412613281


  -Two-electron contribution to gradient:
     Atom            X                  Y                   Z
    ------   -----------------  -----------------  -----------------
       1        0.000000000000     0.000000000000     2.245635038760
       2        0.000000000000     0.000000000000    -2.245635038760


  -Total gradient:
     Atom            X                  Y                   Z
    ------   -----------------  -----------------  -----------------
       1        0.000000000000     0.000000000000     0.018431279530
       2        0.000000000000     0.000000000000    -0.018431279530


			-----------------------------------------
			 OPTKING 2.0: for geometry optimizations 
			  - R.A. King,  Bethel University        
			-----------------------------------------

	Internal coordinates to be generated automatically.
	Detected frag 1 with atoms:  1 2
	---Fragment 1 Bond Connectivity---
	 1 : 2
	 2 : 1

	---Fragment 1 Geometry and Gradient---
	 O           0.0000000000        0.0000000000       -0.1061762206
	 H           0.0000000000        0.0000000000        1.6850936708
	             0.0000000000        0.0000000000        0.0184312795
	             0.0000000000        0.0000000000       -0.0184312795

	Previous optimization step data not found.  Starting new optimization.

	---Fragment 1 Intrafragment Coordinates---
	 - Coordinate -           - BOHR/RAD -       - ANG/DEG -
	 R(1,2)           =         1.791270	       0.947899

	Current energy   :       -75.7008230949

	Generating empirical Hessian (Schlegel '84) for each fragment.
	Taking RFO optimization step.
	Going to follow RFO solution 1.
	Using RFO vector 1.
	Norm of target step-size    0.03166
	Projected energy change by RFO approximation:        -0.0000822869

	Back-transformation to cartesian coordinates...
	Successfully converged to displaced geometry.

	--- Internal Coordinate Step in ANG or DEG, aJ/ANG or AJ/DEG ---
	 ---------------------------------------------------------------------------
	   Coordinate                Previous        Force       Change         New 
	   ----------                --------       ------       ------       ------
	    1 R(1,2)          =      0.947899     0.151850     0.016753     0.964652
	 ---------------------------------------------------------------------------
	Successfully symmetrized geometry.

  ==> Convergence Check <==

  Measures of convergence in internal coordinates in au.
  Criteria marked as inactive (o), active & met (*), and active & unmet ( ).
  --------------------------------------------------------------------------------------------- ~
   Step     Total Energy     Delta E     MAX Force     RMS Force      MAX Disp      RMS Disp    ~
  --------------------------------------------------------------------------------------------- ~
    Convergence Criteria             o    2.00e-06 *    1.00e-06 *    6.00e-06 *    4.00e-06 *  ~
  --------------------------------------------------------------------------------------------- ~
      1     -75.70082309   -7.57e+01 o    1.84e-02      1.84e-02      3.17e-02      3.17e-02    ~
  ---------------------------------------------------------------------------------------------

	Writing optimization data to binary file.
	Structure for next step:
	Cartesian Geometry (in Angstrom)
	    O     0.0000000000   0.0000000000  -0.0645626546
	    H     0.0000000000   0.0000000000   0.9000897835
			--------------------------
			 OPTKING Finished Execution 
			--------------------------

    Structure for next step:
    Molecular point group: c2v
    Full point group: C_inf_v

    Geometry (in Angstrom), charge = 0, multiplicity = 2:

    O       
    H             1          R1

    R1        =    0.9646524419

gradient() will perform analytic gradient computation.

*** tstart() called on c4-20.compute.lan
*** at Tue Feb 23 13:55:45 2021

   => Loading Basis Set <=

    Name: AUG-CC-PV5Z
    Role: ORBITAL
    Keyword: BASIS
    atoms 1 entry O          line   541 file /apps/gb/PSI4/1.4.0/share/psi4/basis/aug-cc-pv5z.gbs 
    atoms 2 entry H          line    42 file /apps/gb/PSI4/1.4.0/share/psi4/basis/aug-cc-pv5z.gbs 


         ---------------------------------------------------------
                                   SCF
               by Justin Turney, Rob Parrish, Andy Simmonett
                          and Daniel G. A. Smith
                              UHF Reference
                        1 Threads,   9536 MiB Core
         ---------------------------------------------------------

  ==> Geometry <==

    Molecular point group: c2v
    Full point group: C_inf_v

    Geometry (in Angstrom), charge = 0, multiplicity = 2:

       Center              X                  Y                   Z               Mass       
    ------------   -----------------  -----------------  -----------------  -----------------
         O            0.000000000000     0.000000000000    -0.057179072211    15.994914619570
         H            0.000000000000     0.000000000000     0.907473369679     1.007825032230

  Running in c2v symmetry.

  Rotational constants: A = ************  B =     19.10762  C =     19.10762 [cm^-1]
  Rotational constants: A = ************  B = 572832.03966  C = 572832.03966 [MHz]
  Nuclear repulsion =    4.388541926111953

  Charge       = 0
  Multiplicity = 2
  Electrons    = 9
  Nalpha       = 5
  Nbeta        = 4

  ==> Algorithm <==

  SCF Algorithm Type is PK.
  DIIS enabled.
  MOM disabled.
  Fractional occupation disabled.
  Guess Type is READ.
  Energy threshold   = 1.00e-10
  Density threshold  = 1.00e-10
  Integral threshold = 0.00e+00

  ==> Primary Basis <==

  Basis Set: AUG-CC-PV5Z
    Blend: AUG-CC-PV5Z
    Number of shells: 47
    Number of basis function: 207
    Number of Cartesian functions: 287
    Spherical Harmonics?: true
    Max angular momentum: 5

   => Loading Basis Set <=

    Name: AUG-CC-PV5Z
    Role: ORBITAL
    Keyword: BASIS
    atoms 1 entry O          line   541 file /apps/gb/PSI4/1.4.0/share/psi4/basis/aug-cc-pv5z.gbs 
    atoms 2 entry H          line    42 file /apps/gb/PSI4/1.4.0/share/psi4/basis/aug-cc-pv5z.gbs 

  Reading orbitals from file 180, no projection.

  ==> Pre-Iterations <==

   -------------------------------------------------------
    Irrep   Nso     Nmo     Nalpha   Nbeta   Ndocc  Nsocc
   -------------------------------------------------------
     A1        77      77       0       0       0       0
     A2        30      30       0       0       0       0
     B1        50      50       0       0       0       0
     B2        50      50       0       0       0       0
   -------------------------------------------------------
    Total     207     207       5       4       4       1
   -------------------------------------------------------

  ==> Integral Setup <==

  Using in-core PK algorithm.
   Calculation information:
      Number of atoms:                   2
      Number of AO shells:              47
      Number of primitives:             71
      Number of atomic orbitals:       287
      Number of basis functions:       207

      Integral cutoff                 1.00e-12
      Number of threads:                 1

  Performing in-core PK
  Using 463476312 doubles for integral storage.
  We computed 636756 shell quartets total.
  Whereas there are 636756 unique shell quartets.

  ==> DiskJK: Disk-Based J/K Matrices <==

    J tasked:                  Yes
    K tasked:                  Yes
    wK tasked:                  No
    Memory [MiB]:             7152
    Schwarz Cutoff:          1E-12

    OpenMP threads:              1

  Minimum eigenvalue in the overlap matrix is 1.8410077103E-05.
  Using Symmetric Orthogonalization.

  SCF Guess: Orbitals guess was supplied from a previous computation.

  ==> Iterations <==

                        Total Energy        Delta E     RMS |[F,P]|

   @UHF iter   0:   -75.42134325144681   -7.54213e+01   2.94197e-04 
   @UHF iter   1:   -75.42805098488057   -6.70773e-03   3.81139e-05 DIIS
   @UHF iter   2:   -75.42805972997563   -8.74510e-06   9.63934e-06 DIIS
   @UHF iter   3:   -75.42806056163442   -8.31659e-07   3.72485e-06 DIIS
   @UHF iter   4:   -75.42806079088507   -2.29251e-07   1.39140e-06 DIIS
   @UHF iter   5:   -75.42806082348136   -3.25963e-08   7.06288e-07 DIIS
   @UHF iter   6:   -75.42806083134172   -7.86036e-09   3.56017e-07 DIIS
   @UHF iter   7:   -75.42806083437256   -3.03083e-09   8.03383e-08 DIIS
   @UHF iter   8:   -75.42806083450961   -1.37049e-10   1.06930e-08 DIIS
   @UHF iter   9:   -75.42806083451134   -1.73372e-12   2.35450e-09 DIIS
   @UHF iter  10:   -75.42806083451129    5.68434e-14   7.71095e-10 DIIS
   @UHF iter  11:   -75.42806083451137   -8.52651e-14   1.50327e-10 DIIS
   @UHF iter  12:   -75.42806083451138   -1.42109e-14   3.53734e-11 DIIS
  Energy and wave function converged.


  ==> Post-Iterations <==

   @Spin Contamination Metric:   7.091673350E-03
   @S^2 Expected:                7.500000000E-01
   @S^2 Observed:                7.570916733E-01
   @S   Expected:                5.000000000E-01
   @S   Observed:                5.000000000E-01

    Orbital Energies [Eh]
    ---------------------

    Alpha Occupied:                                                       

       1A1   -20.637381     2A1    -1.390512     3A1    -0.684271  
       1B2    -0.659102     1B1    -0.561971  

    Alpha Virtual:                                                        

       4A1     0.024062     5A1     0.088835     2B2     0.103591  
       2B1     0.108978     6A1     0.137545     3B2     0.179332  
       7A1     0.182479     3B1     0.182616     8A1     0.286525  
       9A1     0.399420     1A2     0.400191    10A1     0.422324  
       4B2     0.453127     4B1     0.468304     5B2     0.474726  
       5B1     0.485152    11A1     0.487627    12A1     0.514837  
       2A2     0.528573    13A1     0.528875     6B2     0.548677  
       6B1     0.558728    14A1     0.661254     7B2     0.971775  
       7B1     0.974942     8B2     0.975589     8B1     0.989366  
      15A1     0.997447    16A1     1.078834     9B2     1.126740  
       9B1     1.139279    17A1     1.139416     3A2     1.167344  
      18A1     1.170298     4A2     1.207178    19A1     1.208578  
      10B2     1.244554    20A1     1.251997    10B1     1.253408  
      11B2     1.279324    11B1     1.279398     5A2     1.330377  
      21A1     1.330688    22A1     1.392196    12B2     1.477518  
      12B1     1.507384    23A1     1.712437    13B2     1.858126  
      13B1     1.897107    24A1     2.212819     6A2     2.284725  
      25A1     2.285931    14B2     2.307542    14B1     2.322393  
       7A2     2.568063    26A1     2.568063    27A1     2.620734  
      15B2     2.636484    15B1     2.659476    28A1     2.711711  
      16B2     2.831778    16B1     2.831823    17B2     2.912608  
      17B1     2.915248    29A1     2.917514    18B2     2.928007  
       8A2     2.933119    30A1     2.943879    18B1     2.950051  
       9A2     3.051435    31A1     3.051494    32A1     3.124177  
      10A2     3.124178    33A1     3.128949    11A2     3.180581  
      34A1     3.180626    19B2     3.304673    19B1     3.326440  
      20B2     3.336572    20B1     3.336657    35A1     3.435883  
      21B2     3.539194    21B1     3.562704    36A1     3.641722  
      12A2     3.819509    37A1     3.821218    38A1     4.281233  
      22B2     4.548578    22B1     4.582395    23B2     4.657147  
      23B1     4.657239    24B2     4.725499    24B1     4.779630  
      39A1     5.038683    13A2     5.405658    40A1     5.405857  
      41A1     5.635845    25B2     5.799025    25B1     5.825207  
      14A2     5.912579    42A1     5.912767    26B2     6.148592  
      26B1     6.170285    27B2     6.185510    27B1     6.185510  
      43A1     6.231154    15A2     6.456464    44A1     6.456464  
      28B2     6.658331    28B1     6.703916    45A1     6.877960  
      46A1     7.086053    16A2     7.086152    47A1     7.102885  
      29B2     7.150166    29B1     7.151850    30B2     7.181809  
      17A2     7.188491    48A1     7.194217    30B1     7.211405  
      31B2     7.232841    31B1     7.235749    32B2     7.586933  
      32B1     7.586959    49A1     7.707993    18A2     7.709393  
      50A1     7.817691    19A2     7.904931    51A1     7.905124  
      33B2     8.484405    33B1     8.523324    52A1     8.618061  
      53A1     8.828824    34B2     9.096881    34B1     9.141947  
      20A2     9.381750    54A1     9.382231    55A1    10.286560  
      35B2    10.444480    35B1    10.491699    56A1    12.778284  
      36B2    12.971493    36B1    12.971493    21A2    13.136197  
      57A1    13.136197    58A1    13.499378    22A2    13.499517  
      37B2    13.886531    37B1    13.886534    59A1    14.079720  
      60A1    14.127995    23A2    14.127997    38B2    14.192023  
      38B1    14.211132    39B2    14.467214    39B1    14.481497  
      61A1    14.677351    62A1    15.552689    24A2    15.653850  
      63A1    15.655954    40B2    15.946350    40B1    15.988032  
      41B2    16.211351    41B1    16.211351    25A2    16.347822  
      64A1    16.347822    42B2    16.761909    42B1    16.810326  
      43B2    16.865203    43B1    16.865211    65A1    16.906932  
      44B2    17.784988    44B1    17.817497    66A1    17.867593  
      26A2    17.871445    67A1    18.037734    45B2    18.164083  
      45B1    18.194421    68A1    18.585871    69A1    19.068572  
      27A2    19.068574    46B2    19.176870    46B1    19.176879  
      47B2    19.218610    47B1    19.218621    70A1    19.519656  
      28A2    19.577899    71A1    19.591814    29A2    19.982507  
      72A1    19.983549    48B2    20.475455    48B1    20.530094  
      73A1    21.076637    30A2    22.400518    74A1    22.401036  
      49B2    23.206494    49B1    23.256825    50B2    23.957321  
      50B1    24.003998    75A1    25.993142    76A1    26.264857  
      77A1    65.020201  

    Beta Occupied:                                                        

       1A1   -20.597736     2A1    -1.232389     3A1    -0.640279  
       1B1    -0.513974  

    Beta Virtual:                                                         

       4A1     0.024925     1B2     0.056015     5A1     0.089764  
       2B1     0.110030     6A1     0.140636     2B2     0.147812  
       3B1     0.182551     7A1     0.184223     3B2     0.190607  
       8A1     0.291509     1A2     0.405335     9A1     0.405382  
      10A1     0.425113     4B1     0.471484     4B2     0.479221  
       5B1     0.485332    11A1     0.490707     5B2     0.508568  
      12A1     0.520163     2A2     0.528894    13A1     0.529143  
       6B1     0.560295     6B2     0.578754    14A1     0.670920  
       7B1     0.978756     7B2     0.978773     8B1     0.990050  
       8B2     1.003442    15A1     1.004107    16A1     1.084915  
       9B2     1.131196     9B1     1.138709    17A1     1.148440  
       3A2     1.173224    18A1     1.173847     4A2     1.229766  
      19A1     1.229928    10B2     1.252788    10B1     1.253736  
      20A1     1.258619    11B2     1.279887    11B1     1.279889  
       5A2     1.343928    21A1     1.344423    22A1     1.402448  
      12B1     1.513164    12B2     1.533110    23A1     1.720787  
      13B1     1.907884    13B2     1.936530    24A1     2.220094  
       6A2     2.292555    25A1     2.292905    14B2     2.313196  
      14B1     2.320691    26A1     2.574377     7A2     2.574377  
      27A1     2.632416    15B2     2.657059    15B1     2.661835  
      28A1     2.720473    16B1     2.851766    16B2     2.851769  
      17B2     2.923025    17B1     2.923471    29A1     2.932982  
       8A2     2.940000    18B2     2.943324    30A1     2.948219  
      18B1     2.951130     9A2     3.065265    31A1     3.065395  
      32A1     3.126146    10A2     3.126148    33A1     3.138108  
      11A2     3.235599    34A1     3.236588    19B1     3.330409  
      19B2     3.332301    20B1     3.338018    20B2     3.338082  
      35A1     3.449657    21B2     3.551237    21B1     3.564551  
      36A1     3.652751    12A2     3.835751    37A1     3.836043  
      38A1     4.290040    22B2     4.583698    22B1     4.588941  
      23B2     4.660592    23B1     4.660599    24B1     4.794142  
      24B2     4.808577    39A1     5.056663    40A1     5.411316  
      13A2     5.411337    41A1     5.643186    25B2     5.817378  
      25B1     5.827530    14A2     5.920183    42A1     5.920195  
      26B2     6.156813    26B1     6.170544    27B2     6.197091  
      27B1     6.197091    43A1     6.240978    44A1     6.466337  
      15A2     6.466337    28B2     6.702341    28B1     6.713319  
      45A1     6.900965    46A1     7.110525    16A2     7.110741  
      47A1     7.112788    29B2     7.169666    29B1     7.171018  
      30B2     7.194017    17A2     7.199171    48A1     7.201488  
      30B1     7.216163    31B2     7.253394    31B1     7.253754  
      32B2     7.620180    32B1     7.620182    49A1     7.739760  
      18A2     7.740449    50A1     7.825389    19A2     7.946819  
      51A1     7.947367    33B2     8.505761    33B1     8.527609  
      52A1     8.637096    53A1     8.842545    34B2     9.132229  
      34B1     9.150495    20A2     9.420659    54A1     9.420755  
      55A1    10.297063    35B2    10.489195    35B1    10.501805  
      56A1    12.807516    36B2    12.971846    36B1    12.971846  
      57A1    13.136416    21A2    13.136416    58A1    13.502398  
      22A2    13.502479    37B2    13.888326    37B1    13.888327  
      59A1    14.085836    60A1    14.126759    23A2    14.126765  
      38B2    14.197388    38B1    14.211107    39B2    14.471105  
      39B1    14.481530    61A1    14.680273    62A1    15.558523  
      24A2    15.659641    63A1    15.660688    40B2    15.983759  
      40B1    15.996283    41B2    16.236561    41B1    16.236561  
      25A2    16.368534    64A1    16.368534    42B2    16.805510  
      42B1    16.820413    43B2    16.881668    43B1    16.881671  
      65A1    16.910343    44B2    17.795785    44B1    17.819413  
      66A1    17.884533    26A2    17.886376    67A1    18.045975  
      45B2    18.178528    45B1    18.197518    68A1    18.609310  
      69A1    19.107023    27A2    19.107023    46B2    19.210414  
      46B1    19.210415    47B2    19.263568    47B1    19.263569  
      70A1    19.539727    28A2    19.602994    71A1    19.607996  
      29A2    20.011973    72A1    20.012304    48B2    20.509081  
      48B1    20.540155    73A1    21.093432    30A2    22.446523  
      74A1    22.446619    49B2    23.238374    49B1    23.265262  
      50B2    23.989473    50B1    24.012921    75A1    26.001720  
      76A1    26.275140    77A1    65.035635  

    Final Occupation by Irrep:
             A1    A2    B1    B2 
    DOCC [     3,    0,    1,    0 ]
    SOCC [     0,    0,    0,    1 ]

  @UHF Final Energy:   -75.42806083451138

   => Energetics <=

    Nuclear Repulsion Energy =              4.3885419261119534
    One-Electron Energy =                -112.7155901367979425
    Two-Electron Energy =                  32.8989873761746026
    Total Energy =                        -75.4280608345113848

  UHF NO Occupations:
  HONO-2 :    2 A1 1.9992221
  HONO-1 :    3 A1 1.9978579
  HONO-0 :    1 B2 1.0000000
  LUNO+0 :    4 A1 0.0021421
  LUNO+1 :    5 A1 0.0007779
  LUNO+2 :    2 B1 0.0006273
  LUNO+3 :    6 A1 0.0000013


Computation Completed


Properties will be evaluated at   0.000000,   0.000000,   0.000000 [a0]

Properties computed using the SCF density matrix

  Nuclear Dipole Moment: [e a0]
     X:     0.0000      Y:     0.0000      Z:     0.8505

  Electronic Dipole Moment: [e a0]
     X:     0.0000      Y:     0.0000      Z:    -0.1607

  Dipole Moment: [e a0]
     X:     0.0000      Y:     0.0000      Z:     0.6898     Total:     0.6898

  Dipole Moment: [D]
     X:     0.0000      Y:     0.0000      Z:     1.7533     Total:     1.7533


*** tstop() called on c4-20.compute.lan at Tue Feb 23 13:56:30 2021
Module time:
	user time   =      41.97 seconds =       0.70 minutes
	system time =       3.36 seconds =       0.06 minutes
	total time  =         45 seconds =       0.75 minutes
Total time:
	user time   =     690.39 seconds =      11.51 minutes
	system time =     483.85 seconds =       8.06 minutes
	total time  =       1287 seconds =      21.45 minutes
 MINTS: Wrapper to libmints.
   by Justin Turney

   Calculation information:
      Number of threads:                 1
      Number of atoms:                   2
      Number of AO shells:              47
      Number of SO shells:              47
      Number of primitives:             71
      Number of atomic orbitals:       287
      Number of basis functions:       207

      Number of irreps:                  4
      Integral cutoff                 0.00e+00
      Number of functions per irrep: [  77   30   50   50 ]

 OEINTS: Overlap, kinetic, potential, dipole, and quadrupole integrals
         stored in file 35.

      Computing two-electron integrals...done
      Computed 53502175 non-zero two-electron integrals.
        Stored in file 33.


*** tstart() called on c4-20.compute.lan
*** at Tue Feb 23 13:56:46 2021


	Wfn Parameters:
	--------------------
	Wavefunction         = CCSD
	Number of irreps     = 4
	Number of MOs        = 207
	Number of active MOs = 207
	AO-Basis             = NONE
	Semicanonical        = false
	Reference            = UHF
	Print Level          = 1

	IRREP	# MOs	# FZDC	# DOCC	# SOCC	# VIRT	# FZVR
	-----	-----	------	------	------	------	------
	 A1	   77	    0	    3	    0	    74	    0
	 A2	   30	    0	    0	    0	    30	    0
	 B1	   50	    0	    1	    0	    49	    0
	 B2	   50	    0	    0	    1	    49	    0
	Transforming integrals...
	IWL integrals will be deleted.
	(OO|OO)...
	Presorting SO-basis two-electron integrals.
	Sorting File: SO Ints (nn|nn) nbuckets = 1
	Transforming the one-electron integrals and constructing Fock matrices
	Starting AA/AB first half-transformation.
	Sorting AA/AB half-transformed integrals.
	Starting BB first half-transformation.
	Sorting BB half-transformed integrals.
	First half integral transformation complete.
	Starting AA second half-transformation.
	Starting AB second half-transformation.
	Starting BB second half-transformation.
	Two-electron integral transformation complete.
	(OO|OV)...
	Starting AA second half-transformation.
	Starting AB second half-transformation.
	Starting BB second half-transformation.
	Two-electron integral transformation complete.
	(OO|VV)...
	Starting AA second half-transformation.
	Starting AB second half-transformation.
	Starting BB second half-transformation.
	Two-electron integral transformation complete.
	(OV|OO)...
	Starting AA/AB first half-transformation.
	Sorting AA/AB half-transformed integrals.
	Starting BB first half-transformation.
	Sorting BB half-transformed integrals.
	First half integral transformation complete.
	Starting AA second half-transformation.
	Starting AB second half-transformation.
	Starting BB second half-transformation.
	Two-electron integral transformation complete.
	(OV|OV)...
	Starting AA second half-transformation.
	Starting AB second half-transformation.
	Starting BB second half-transformation.
	Two-electron integral transformation complete.
	(OV|VV)...
	Starting AA second half-transformation.
	Starting AB second half-transformation.
	Starting BB second half-transformation.
	Two-electron integral transformation complete.
	(VV|OO)...
	Starting AA/AB first half-transformation.
	Sorting AA/AB half-transformed integrals.
	Starting BB first half-transformation.
	Sorting BB half-transformed integrals.
	First half integral transformation complete.
	Starting AA second half-transformation.
	Starting AB second half-transformation.
	Starting BB second half-transformation.
	Two-electron integral transformation complete.
	(VV|OV)...
	Starting AA second half-transformation.
	Starting AB second half-transformation.
	Starting BB second half-transformation.
	Two-electron integral transformation complete.
	(VV|VV)...
	Starting AA second half-transformation.
	Starting AB second half-transformation.
	Starting BB second half-transformation.
	Two-electron integral transformation complete.
	Frozen core energy     =      0.00000000000000

	Size of irrep 0 of <AB|CD> integrals:     30.118 (MW) /    240.945 (MB)
	Size of irrep 1 of <AB|CD> integrals:     21.354 (MW) /    170.829 (MB)
	Size of irrep 2 of <AB|CD> integrals:     25.969 (MW) /    207.754 (MB)
	Size of irrep 3 of <AB|CD> integrals:     25.969 (MW) /    207.754 (MB)
	Total:                                   103.410 (MW) /    827.282 (MB)

	Size of irrep 0 of <ab|cd> integrals:     30.658 (MW) /    245.267 (MB)
	Size of irrep 1 of <ab|cd> integrals:     21.809 (MW) /    174.471 (MB)
	Size of irrep 2 of <ab|cd> integrals:     26.276 (MW) /    210.207 (MB)
	Size of irrep 3 of <ab|cd> integrals:     26.729 (MW) /    213.831 (MB)
	Total:                                   105.472 (MW) /    843.776 (MB)

	Size of irrep 0 of <Ab|Cd> integrals:    126.046 (MW) /   1008.364 (MB)
	Size of irrep 1 of <Ab|Cd> integrals:     86.323 (MW) /    690.581 (MB)
	Size of irrep 2 of <Ab|Cd> integrals:    104.489 (MW) /    835.914 (MB)
	Size of irrep 3 of <Ab|Cd> integrals:    105.391 (MW) /    843.126 (MB)
	Total:                                   422.248 (MW) /   3377.986 (MB)

	Size of irrep 0 of <IA|BC> integrals:      3.577 (MW) /     28.616 (MB)
	Size of irrep 1 of <IA|BC> integrals:      1.737 (MW) /     13.900 (MB)
	Size of irrep 2 of <IA|BC> integrals:      2.558 (MW) /     20.466 (MB)
	Size of irrep 3 of <IA|BC> integrals:      2.558 (MW) /     20.466 (MB)
	Total:                                    10.431 (MW) /     83.447 (MB)

	Size of irrep 0 of <ia|bc> integrals:      3.056 (MW) /     24.449 (MB)
	Size of irrep 1 of <ia|bc> integrals:      1.308 (MW) /     10.461 (MB)
	Size of irrep 2 of <ia|bc> integrals:      2.266 (MW) /     18.126 (MB)
	Size of irrep 3 of <ia|bc> integrals:      1.861 (MW) /     14.890 (MB)
	Total:                                     8.491 (MW) /     67.924 (MB)

	Size of irrep 0 of <Ia|Bc> integrals:      3.604 (MW) /     28.831 (MB)
	Size of irrep 1 of <Ia|Bc> integrals:      1.756 (MW) /     14.048 (MB)
	Size of irrep 2 of <Ia|Bc> integrals:      2.566 (MW) /     20.526 (MB)
	Size of irrep 3 of <Ia|Bc> integrals:      2.608 (MW) /     20.861 (MB)
	Total:                                    10.533 (MW) /     84.265 (MB)

	Size of irrep 0 of <iA|bC> integrals:      3.043 (MW) /     24.340 (MB)
	Size of irrep 1 of <iA|bC> integrals:      1.291 (MW) /     10.332 (MB)
	Size of irrep 2 of <iA|bC> integrals:      2.259 (MW) /     18.072 (MB)
	Size of irrep 3 of <iA|bC> integrals:      1.817 (MW) /     14.537 (MB)
	Total:                                     8.410 (MW) /     67.281 (MB)

	Size of irrep 0 of tIjAb amplitudes:       0.112 (MW) /      0.898 (MB)
	Size of irrep 1 of tIjAb amplitudes:       0.009 (MW) /      0.074 (MB)
	Size of irrep 2 of tIjAb amplitudes:       0.061 (MW) /      0.491 (MB)
	Size of irrep 3 of tIjAb amplitudes:       0.031 (MW) /      0.246 (MB)
	Total:                                     0.214 (MW) /      1.710 (MB)

	Nuclear Rep. energy          =      4.38854192611195
	SCF energy                   =    -75.42806083451138
	One-electron energy          =   -112.71559013662292
	Two-electron (AA) energy     =      7.75245706595964
	Two-electron (BB) energy     =      4.63757762206357
	Two-electron (AB) energy     =     20.50895268797641
	Two-electron energy          =     32.89898737599962
	Reference energy             =    -75.42806083451136

*** tstop() called on c4-20.compute.lan at Tue Feb 23 13:58:58 2021
Module time:
	user time   =      55.40 seconds =       0.92 minutes
	system time =      63.09 seconds =       1.05 minutes
	total time  =        132 seconds =       2.20 minutes
Total time:
	user time   =     760.98 seconds =      12.68 minutes
	system time =     547.79 seconds =       9.13 minutes
	total time  =       1435 seconds =      23.92 minutes
            **************************
            *                        *
            *        CCENERGY        *
            *                        *
            **************************

    Nuclear Rep. energy (wfn)     =    4.388541926111953
    SCF energy          (wfn)     =  -75.428060834511385
    Reference energy    (file100) =  -75.428060834511356

    Input parameters:
    -----------------
    Wave function   =     CCSD
    Reference wfn   =     UHF
    Brueckner       =     No
    Memory (Mbytes) =     10000.0
    Maxiter         =     50
    R_Convergence   =     1.0e-10
    E_Convergence   =     1.0e-10
    Restart         =     Yes
    DIIS            =     Yes
    AO Basis        =     NONE
    ABCD            =     NEW
    Cache Level     =     2
    Cache Type      =     LRU
    Print Level     =     1
    Num. of threads =     1
    # Amps to Print =     10
    Print MP2 Amps? =     No
    Analyze T2 Amps =     No
    Print Pair Ener =     No
    Local CC        =     No
    SCS-MP2         =     False
    SCSN-MP2        =     False
    SCS-CCSD        =     False

    Using old T1 amplitudes.
    Using old T2 amplitudes.
MP2 correlation energy -0.2625088080168041
                Solving CC Amplitude Equations
                ------------------------------
  Iter             Energy              RMS        T1Diag      D1Diag    New D1Diag    D2Diag
  ----     ---------------------    ---------   ----------  ----------  ----------   --------
     0        -0.252150247967364    0.000e+00    0.011136    0.000000    0.000000    0.000000
     1        -0.272874946768973    5.972e-02    0.011607    0.000000    0.000000    0.000000
     2        -0.272860460364354    8.388e-03    0.011481    0.000000    0.000000    0.000000
     3        -0.273079636298395    1.457e-03    0.011435    0.000000    0.000000    0.000000
     4        -0.273062723702762    4.595e-04    0.011420    0.000000    0.000000    0.000000
     5        -0.273063900924217    1.372e-04    0.011411    0.000000    0.000000    0.000000
     6        -0.273064901951305    5.255e-05    0.011409    0.000000    0.000000    0.000000
     7        -0.273064550780262    2.119e-05    0.011407    0.000000    0.000000    0.000000
     8        -0.273064378333671    8.494e-06    0.011407    0.000000    0.000000    0.000000
     9        -0.273064469920775    3.272e-06    0.011407    0.000000    0.000000    0.000000
    10        -0.273064482898206    1.318e-06    0.011407    0.000000    0.000000    0.000000
    11        -0.273064492160339    4.943e-07    0.011407    0.000000    0.000000    0.000000
    12        -0.273064503062906    1.691e-07    0.011407    0.000000    0.000000    0.000000
    13        -0.273064502091856    5.689e-08    0.011407    0.000000    0.000000    0.000000
    14        -0.273064502655400    2.134e-08    0.011407    0.000000    0.000000    0.000000
    15        -0.273064502842314    8.185e-09    0.011407    0.000000    0.000000    0.000000
    16        -0.273064502837887    3.314e-09    0.011407    0.000000    0.000000    0.000000
    17        -0.273064502880010    1.346e-09    0.011407    0.000000    0.000000    0.000000
    18        -0.273064502895557    5.542e-10    0.011407    0.000000    0.000000    0.000000
    19        -0.273064502895383    2.432e-10    0.011407    0.000000    0.000000    0.000000
    20        -0.273064502898289    1.063e-10    0.011407    0.000000    0.000000    0.000000
    21        -0.273064502898485    4.658e-11    0.011407    0.000000    0.000000    0.000000

    Iterations converged.


    Largest TIA Amplitudes:
              4 155        -0.0105434900
              4 153        -0.0099465632
              3 104        -0.0095626345
              3 106        -0.0091573912
              4 154        -0.0057953458
              3 105        -0.0057905621
              2  20        -0.0038377635
              4 158        -0.0035727955
              3 110        -0.0032756714
              3 126         0.0031723815

    Largest Tia Amplitudes:
              3 104        -0.0071531087
              3 106        -0.0059725188
              1  10        -0.0053729027
              3 105        -0.0051701403
              2  18        -0.0049189629
              1   6        -0.0045182658
              1   4         0.0044824378
              2  20        -0.0044467016
              1  18        -0.0041387127
              3 126         0.0039279570

    Largest TIJAB Amplitudes:
      4   3 155 106        -0.0092568042
      4   2 155  10         0.0091718334
      3   2 106  10         0.0090618708
      4   2 155   4        -0.0083724572
      3   2 106   4        -0.0082790196
      3   2 110   6         0.0077589074
      4   2 164  10         0.0074119851
      4   3  77  15        -0.0073265816
      3   2 115  10         0.0073047057
      4   3 164 115        -0.0071632459

    Largest Tijab Amplitudes:
      3   2 106  10         0.0089654596
      3   2 106   4        -0.0080406747
      3   2 110   6         0.0077679113
      3   2 110  10         0.0071713239
      3   2 115  10         0.0071267197
      3   2 110  11        -0.0068610726
      3   2 106   6         0.0061654787
      3   2 110   4        -0.0054434263
      3   1 153  77         0.0054354733
      3   2 115   4        -0.0053935432

    Largest TIjAb Amplitudes:
      2   2  10  10        -0.0204988928
      2   2   4  10         0.0172102780
      2   2   6   6        -0.0171177416
      2   2  10   4         0.0165280356
      2   2   4   4        -0.0152321329
      3   3 106 106        -0.0148437959
      2   2   6  10        -0.0144537069
      2   2  10   6        -0.0143482290
      3   3 115 115        -0.0140509261
      2   2  11  11        -0.0135774702

    SCF energy       (wfn)                    =  -75.428060834511385
    Reference energy (file100)                =  -75.428060834511356

    Opposite-spin MP2 correlation energy      =   -0.206029081679350
    Same-spin MP2 correlation energy          =   -0.056479726337454
    MP2 correlation energy                    =   -0.262508808016804
      * MP2 total energy                      =  -75.690569642528160

    Opposite-spin CCSD correlation energy     =   -0.219533988125844
    Same-spin CCSD correlation energy         =   -0.053530514772643
    CCSD correlation energy                   =   -0.273064502898485
      * CCSD total energy                     =  -75.701125337409835


			**************************
			*                        *
			*         CCHBAR         *
			*                        *
			**************************


			**************************
			*        CCLAMBDA        *
			**************************


	Nuclear Rep. energy (wfn)     =    4.388541926111953
	Reference           (wfn)     =                    2
	SCF energy          (wfn)     =  -75.428060834511385
	Reference energy    (CC_INFO) =  -75.428060834511356
	CCSD energy         (CC_INFO) =   -0.273064502898485
	Total CCSD energy   (CC_INFO) =  -75.701125337409835

	Input parameters:
	-----------------
	Maxiter           =     50
	Convergence       = 1.0e-07
	Restart           =     No
	Cache Level       =     2
	Model III         =     No
	DIIS              =     Yes
	AO Basis          =     No
	ABCD              =     NEW
	Local CC          =     No
	Parameters for left-handed eigenvectors:
	    Irr   Root  Ground-State?    EOM energy        R0
	  1   0     0        Yes       0.0000000000   1.0000000000
	Labels for eigenvector 1:
	LIA 0 -1, Lia 0 -1, LIJAB 0 -1, Lijab 0 -1, LIjAb 0 -1, 2LIjAb - LIjbA 0 -1
	Symmetry of left-hand state: B2
	Symmetry of left-hand eigenvector: A1

	          Solving Lambda Equations
	          ------------------------
	Iter     PseudoEnergy or Norm         RMS  
	----     ---------------------     --------
	   0        -0.273070657580856    6.197e-08
	   1        -0.268090721131207    7.988e-03
	   2        -0.267670715512640    1.802e-03
	   3        -0.267571172186976    8.712e-04
	   4        -0.267567800070182    2.506e-04
	   5        -0.267574295327251    7.766e-05
	   6        -0.267572406023171    2.929e-05
	   7        -0.267571528623546    1.336e-05
	   8        -0.267571656167950    4.774e-06
	   9        -0.267571631093139    1.492e-06
	  10        -0.267571626205221    5.167e-07
	  11        -0.267571610107134    1.932e-07
	  12        -0.267571610106313    7.049e-08

	Largest LIA Amplitudes:
	          4 155        -0.0079917891
	          4 153        -0.0076771472
	          3 104        -0.0069621106
	          3 106        -0.0065232568
	          4 154        -0.0044043440
	          3 105        -0.0041349315
	          2  20        -0.0032939054
	          2   6         0.0027646061
	          1   2         0.0026232385
	          4 158        -0.0025656400

	Largest Lia Amplitudes:
	          1  10        -0.0050627877
	          2  18        -0.0044779474
	          1   6        -0.0043682682
	          2  10        -0.0042679918
	          3 104        -0.0042110782
	          1   4         0.0041902318
	          2  20        -0.0039614467
	          1  18        -0.0039447557
	          3 115         0.0036636248
	          1  15        -0.0034615810

	Largest LIJAB Amplitudes:
	  4   3 155 106        -0.0091074811
	  4   2 155  10         0.0089903091
	  3   2 106  10         0.0088243588
	  4   2 155   4        -0.0081733898
	  3   2 106   4        -0.0080293385
	  3   2 110   6         0.0075072346
	  4   2 164  10         0.0072823939
	  3   2 115  10         0.0071549572
	  4   3  77  15        -0.0071371145
	  4   3 164 115        -0.0070797830

	Largest Lijab Amplitudes:
	  3   2 106  10         0.0086426806
	  3   2 106   4        -0.0077076628
	  3   2 110   6         0.0074812778
	  3   2 115  10         0.0069566520
	  3   2 110  10         0.0069471646
	  3   2 110  11        -0.0066233676
	  3   2 106   6         0.0059149768
	  3   1 153  77         0.0052906239
	  3   2 110   4        -0.0052615672
	  3   2 115   4        -0.0052538708

	Largest LIjAb Amplitudes:
	  2   2  10  10        -0.0199843266
	  2   2   4  10         0.0167383519
	  2   2   6   6        -0.0165285275
	  2   2  10   4         0.0160774198
	  2   2   4   4        -0.0147567730
	  3   3 106 106        -0.0144569423
	  2   2   6  10        -0.0140107398
	  2   2  10   6        -0.0139109514
	  3   3 115 115        -0.0138344715
	  2   2  11  11        -0.0131717271

	Iterations converged.

	Overlap <L|e^T> =        0.94578732114

			**************************
			*                        *
			*        CCDENSITY       *
			*                        *
			**************************


	Input parameters:
	-----------------
	Wave function    =   CCSD
	Reference wfn    =   UHF
	Dertype          = 1
	Tolerance        = 1.0e-14
	Cache Level      = 2
	AO Basis         = No
	OPDM Only        = No
	Relax OPDM       = Yes
	Compute Xi       = No
	Use Zeta         = No
	Xi connected     = Yes
	Compute NO       = No

	Nuclear Rep. energy (wfn)     =    4.388541926111953
	SCF energy          (wfn)     =  -75.428060834511385
	Reference energy    (file100) =  -75.428060834511356
	CCSD energy         (CC_INFO) =   -0.273064502898485
	Total CCSD energy   (CC_INFO) =  -75.701125337409835
	Number of States = 1

	Ground?  State     EOM Energy       R0
	  Yes     0 A1    0.0000000000   1.00000000
  Cartesian Displacement SALCs
  By SALC:
  Number of SALCs: 2, nirreps: A1
  Project out translations: False
  Project out rotations: False
	irrep = 0, ncomponent = 1
		0: atom 0, direction z, coef 1.000000
	irrep = 0, ncomponent = 1
		0: atom 1, direction z, coef 1.000000

  By Atomic Center:
  Number of atomic centers: 2
   Atomic Center 0:
	x component, size = 0
	y component, size = 0
	z component, size = 1
		0: salc 0, irrep 0, coef 1.000000
   Atomic Center 1:
	x component, size = 0
	y component, size = 0
	z component, size = 1
		0: salc 1, irrep 0, coef 1.000000

    Molecular point group: c2v
    Full point group: C_inf_v

    Geometry (in Bohr), charge = 0, multiplicity = 2:

[...]
	Size of irrep 1 of <Ia|Bc> integrals:      1.756 (MW) /     14.048 (MB)
	Size of irrep 2 of <Ia|Bc> integrals:      2.566 (MW) /     20.526 (MB)
	Size of irrep 3 of <Ia|Bc> integrals:      2.608 (MW) /     20.861 (MB)
	Total:                                    10.533 (MW) /     84.265 (MB)

	Size of irrep 0 of <iA|bC> integrals:      3.043 (MW) /     24.340 (MB)
	Size of irrep 1 of <iA|bC> integrals:      1.291 (MW) /     10.332 (MB)
	Size of irrep 2 of <iA|bC> integrals:      2.259 (MW) /     18.072 (MB)
	Size of irrep 3 of <iA|bC> integrals:      1.817 (MW) /     14.537 (MB)
	Total:                                     8.410 (MW) /     67.281 (MB)

	Size of irrep 0 of tIjAb amplitudes:       0.112 (MW) /      0.898 (MB)
	Size of irrep 1 of tIjAb amplitudes:       0.009 (MW) /      0.074 (MB)
	Size of irrep 2 of tIjAb amplitudes:       0.061 (MW) /      0.491 (MB)
	Size of irrep 3 of tIjAb amplitudes:       0.031 (MW) /      0.246 (MB)
	Total:                                     0.214 (MW) /      1.710 (MB)

	Nuclear Rep. energy          =      4.38388195036568
	SCF energy                   =    -75.42803033465364
	One-electron energy          =   -112.70743269477903
	Two-electron (AA) energy     =      7.75180406960868
	Two-electron (BB) energy     =      4.63681190391532
	Two-electron (AB) energy     =     20.50690443623571
	Two-electron energy          =     32.89552040975971
	Reference energy             =    -75.42803033465366

*** tstop() called on c4-20.compute.lan at Tue Feb 23 14:54:14 2021
Module time:
	user time   =      53.28 seconds =       0.89 minutes
	system time =      55.31 seconds =       0.92 minutes
	total time  =        119 seconds =       1.98 minutes
Total time:
	user time   =    2552.86 seconds =      42.55 minutes
	system time =    1706.62 seconds =      28.44 minutes
	total time  =       4751 seconds =      79.18 minutes
            **************************
            *                        *
            *        CCENERGY        *
            *                        *
            **************************

    Nuclear Rep. energy (wfn)     =    4.383881950365681
    SCF energy          (wfn)     =  -75.428030334653641
    Reference energy    (file100) =  -75.428030334653656

    Input parameters:
    -----------------
    Wave function   =     CCSD
    Reference wfn   =     UHF
    Brueckner       =     No
    Memory (Mbytes) =     10000.0
    Maxiter         =     50
    R_Convergence   =     1.0e-10
    E_Convergence   =     1.0e-10
    Restart         =     Yes
    DIIS            =     Yes
    AO Basis        =     NONE
    ABCD            =     NEW
    Cache Level     =     2
    Cache Type      =     LRU
    Print Level     =     1
    Num. of threads =     1
    # Amps to Print =     10
    Print MP2 Amps? =     No
    Analyze T2 Amps =     No
    Print Pair Ener =     No
    Local CC        =     No
    SCS-MP2         =     False
    SCSN-MP2        =     False
    SCS-CCSD        =     False

    Using old T1 amplitudes.
    Using old T2 amplitudes.
MP2 correlation energy -0.2625387606913686
                Solving CC Amplitude Equations
                ------------------------------
  Iter             Energy              RMS        T1Diag      D1Diag    New D1Diag    D2Diag
  ----     ---------------------    ---------   ----------  ----------  ----------   --------
     0        -0.273095848144590    0.000e+00    0.011424    0.000000    0.000000    0.000000
     1        -0.273095958941218    3.639e-06    0.011424    0.000000    0.000000    0.000000
     2        -0.273095965335107    6.527e-07    0.011424    0.000000    0.000000    0.000000
     3        -0.273095970612684    1.658e-07    0.011424    0.000000    0.000000    0.000000
     4        -0.273095972040767    7.099e-08    0.011424    0.000000    0.000000    0.000000
     5        -0.273095972548925    2.278e-08    0.011424    0.000000    0.000000    0.000000
     6        -0.273095972589263    9.613e-09    0.011424    0.000000    0.000000    0.000000
     7        -0.273095972656078    3.907e-09    0.011424    0.000000    0.000000    0.000000
     8        -0.273095972671905    1.483e-09    0.011424    0.000000    0.000000    0.000000
     9        -0.273095972682741    5.137e-10    0.011424    0.000000    0.000000    0.000000
    10        -0.273095972688022    1.641e-10    0.011424    0.000000    0.000000    0.000000
    11        -0.273095972688596    5.838e-11    0.011424    0.000000    0.000000    0.000000

    Iterations converged.


    Largest TIA Amplitudes:
              4 155        -0.0105576158
              4 153        -0.0099595871
              3 104        -0.0095784880
              3 106        -0.0091699006
              4 154        -0.0057964714
              3 105        -0.0057949975
              2  20        -0.0038477099
              4 158        -0.0035888930
              3 110        -0.0032812264
              3 126         0.0031780045

    Largest Tia Amplitudes:
              3 104        -0.0071675161
              3 106        -0.0059861685
              1  10        -0.0053824186
              3 105        -0.0051761308
              2  18        -0.0049403459
              1   6        -0.0045309057
              1   4         0.0045037958
              2  20        -0.0044566341
              1  18        -0.0041356137
              3 126         0.0039359006

    Largest TIJAB Amplitudes:
      4   3 155 106        -0.0092395077
      4   2 155  10         0.0091766960
      3   2 106  10         0.0090618474
      4   2 155   4        -0.0083847189
      3   2 106   4        -0.0082884007
      3   2 110   6         0.0077653722
      4   2 164  10         0.0074142261
      4   3  77  15        -0.0073422902
      3   2 115  10         0.0073071069
      4   3 164 115        -0.0071630049

    Largest Tijab Amplitudes:
      3   2 106  10         0.0089638995
      3   2 106   4        -0.0080493039
      3   2 110   6         0.0077740546
      3   2 110  10         0.0071680595
      3   2 115  10         0.0071302840
      3   2 110  11        -0.0068615998
      3   2 106   6         0.0061836913
      3   2 110   4        -0.0054539982
      3   1 153  77         0.0054427679
      3   2 115   4        -0.0054036944

    Largest TIjAb Amplitudes:
      2   2  10  10        -0.0205262256
      2   2   4  10         0.0172654777
      2   2   6   6        -0.0171687425
      2   2  10   4         0.0165784925
      2   2   4   4        -0.0153026436
      3   3 106 106        -0.0148083851
      2   2   6  10        -0.0144848445
      2   2  10   6        -0.0143827803
      3   3 115 115        -0.0140521249
      2   2  11  11        -0.0135845139

    SCF energy       (wfn)                    =  -75.428030334653641
    Reference energy (file100)                =  -75.428030334653656

    Opposite-spin MP2 correlation energy      =   -0.206052650244084
    Same-spin MP2 correlation energy          =   -0.056486110447285
    MP2 correlation energy                    =   -0.262538760691369
      * MP2 total energy                      =  -75.690569095345026

    Opposite-spin CCSD correlation energy     =   -0.219563642493544
    Same-spin CCSD correlation energy         =   -0.053532330195046
    CCSD correlation energy                   =   -0.273095972688596
      * CCSD total energy                     =  -75.701126307342250


			**************************
			*                        *
			*         CCHBAR         *
			*                        *
			**************************


			**************************
			*        CCLAMBDA        *
			**************************


	Nuclear Rep. energy (wfn)     =    4.383881950365681
	Reference           (wfn)     =                    2
	SCF energy          (wfn)     =  -75.428030334653641
	Reference energy    (CC_INFO) =  -75.428030334653656
	CCSD energy         (CC_INFO) =   -0.273095972688596
	Total CCSD energy   (CC_INFO) =  -75.701126307342250

	Input parameters:
	-----------------
	Maxiter           =     50
	Convergence       = 1.0e-07
	Restart           =     No
	Cache Level       =     2
	Model III         =     No
	DIIS              =     Yes
	AO Basis          =     No
	ABCD              =     NEW
	Local CC          =     No
	Parameters for left-handed eigenvectors:
	    Irr   Root  Ground-State?    EOM energy        R0
	  1   0     0        Yes       0.0000000000   1.0000000000
	Labels for eigenvector 1:
	LIA 0 -1, Lia 0 -1, LIJAB 0 -1, Lijab 0 -1, LIjAb 0 -1, 2LIjAb - LIjbA 0 -1
	Symmetry of left-hand state: B2
	Symmetry of left-hand eigenvector: A1

	          Solving Lambda Equations
	          ------------------------
	Iter     PseudoEnergy or Norm         RMS  
	----     ---------------------     --------
	   0        -0.273102065280734    7.111e-08
	   1        -0.268117173858330    7.998e-03
	   2        -0.267696596422188    1.804e-03
	   3        -0.267596850932679    8.728e-04
	   4        -0.267593437609184    2.511e-04
	   5        -0.267599950298058    7.783e-05
	   6        -0.267598058004202    2.936e-05
	   7        -0.267597179113795    1.340e-05
	   8        -0.267597306783126    4.789e-06
	   9        -0.267597281420711    1.498e-06
	  10        -0.267597276473682    5.196e-07
	  11        -0.267597260264760    1.945e-07
	  12        -0.267597260265860    7.111e-08

	Largest LIA Amplitudes:
	          4 155        -0.0080019138
	          4 153        -0.0076867398
	          3 104        -0.0069737645
	          3 106        -0.0065319943
	          4 154        -0.0044043721
	          3 105        -0.0041377017
	          2  20        -0.0033020036
	          2   6         0.0027914670
	          1   2         0.0026254968
	          4 158        -0.0025779289

	Largest Lia Amplitudes:
	          1  10        -0.0050695997
	          2  18        -0.0044979534
	          1   6        -0.0043796408
	          2  10        -0.0042945184
	          3 104        -0.0042199599
	          1   4         0.0042080033
	          2  20        -0.0039697977
	          1  18        -0.0039417305
	          3 115         0.0036631920
	          1  15        -0.0034675689

	Largest LIJAB Amplitudes:
	  4   3 155 106        -0.0090907292
	  4   2 155  10         0.0089947555
	  3   2 106  10         0.0088239951
	  4   2 155   4        -0.0081851394
	  3   2 106   4        -0.0080381661
	  3   2 110   6         0.0075132655
	  4   2 164  10         0.0072843822
	  3   2 115  10         0.0071570879
	  4   3  77  15        -0.0071523835
	  4   3 164 115        -0.0070796023

	Largest Lijab Amplitudes:
	  3   2 106  10         0.0086407383
	  3   2 106   4        -0.0077155002
	  3   2 110   6         0.0074867674
	  3   2 115  10         0.0069599176
	  3   2 110  10         0.0069436959
	  3   2 110  11        -0.0066235348
	  3   2 106   6         0.0059320568
	  3   1 153  77         0.0052976801
	  3   2 110   4        -0.0052715020
	  3   2 115   4        -0.0052635487

	Largest LIjAb Amplitudes:
	  2   2  10  10        -0.0200103990
	  2   2   4  10         0.0167914942
	  2   2   6   6        -0.0165772329
	  2   2  10   4         0.0161259513
	  2   2   4   4        -0.0148245964
	  3   3 106 106        -0.0144223353
	  2   2   6  10        -0.0140406678
	  2   2  10   6        -0.0139440403
	  3   3 115 115        -0.0138356762
	  2   2  11  11        -0.0131780193

	Iterations converged.

	Overlap <L|e^T> =        0.94574354612

			**************************
			*                        *
			*        CCDENSITY       *
			*                        *
			**************************


	Input parameters:
	-----------------
	Wave function    =   CCSD
	Reference wfn    =   UHF
	Dertype          = 1
	Tolerance        = 1.0e-14
	Cache Level      = 2
	AO Basis         = No
	OPDM Only        = No
	Relax OPDM       = Yes
	Compute Xi       = No
	Use Zeta         = No
	Xi connected     = Yes
	Compute NO       = No

	Nuclear Rep. energy (wfn)     =    4.383881950365681
	SCF energy          (wfn)     =  -75.428030334653641
	Reference energy    (file100) =  -75.428030334653656
	CCSD energy         (CC_INFO) =   -0.273095972688596
	Total CCSD energy   (CC_INFO) =  -75.701126307342250
	Number of States = 1

	Ground?  State     EOM Energy       R0
	  Yes     0 A1    0.0000000000   1.00000000
  Cartesian Displacement SALCs
  By SALC:
  Number of SALCs: 2, nirreps: A1
  Project out translations: False
  Project out rotations: False
	irrep = 0, ncomponent = 1
		0: atom 0, direction z, coef 1.000000
	irrep = 0, ncomponent = 1
		0: atom 1, direction z, coef 1.000000

  By Atomic Center:
  Number of atomic centers: 2
   Atomic Center 0:
	x component, size = 0
	y component, size = 0
	z component, size = 1
		0: salc 0, irrep 0, coef 1.000000
   Atomic Center 1:
	x component, size = 0
	y component, size = 0
	z component, size = 1
		0: salc 1, irrep 0, coef 1.000000

    Molecular point group: c2v
    Full point group: C_inf_v

    Geometry (in Bohr), charge = 0, multiplicity = 2:

       Center              X                  Y                   Z       
    ------------   -----------------  -----------------  -----------------
         O            0.000000000000     0.000000000000    -0.108167644462
         H            0.000000000000     0.000000000000     1.716699012664

	Presorting MO-basis TPDMs.
	Sorting File: MO TPDM (AA|AA) nbuckets = 1
	Sorting File: MO TPDM (AA|aa) nbuckets = 1
	Sorting File: MO TPDM (aa|aa) nbuckets = 1
	Starting first half-transformation.
	Sorting half-transformed TPDMs.
	First half integral transformation complete.


  -Nuclear Repulsion Energy 1st Derivatives:
     Atom            X                  Y                   Z
    ------   -----------------  -----------------  -----------------
       1        0.000000000000     0.000000000000     2.402302619343
       2        0.000000000000     0.000000000000    -2.402302619343


  -Core Hamiltonian Gradient:
     Atom            X                  Y                   Z
    ------   -----------------  -----------------  -----------------
       1        0.000000000000     0.000000000000    -4.809211705375
       2        0.000000000000     0.000000000000     4.809211705375


  -Lagrangian contribution to gradient:
     Atom            X                  Y                   Z
    ------   -----------------  -----------------  -----------------
       1        0.000000000000     0.000000000000     0.211367898248
       2        0.000000000000     0.000000000000    -0.211367898248


  -Two-electron contribution to gradient:
     Atom            X                  Y                   Z
    ------   -----------------  -----------------  -----------------
       1        0.000000000000     0.000000000000     2.195541413320
       2        0.000000000000     0.000000000000    -2.195541413320


  -Total gradient:
     Atom            X                  Y                   Z
    ------   -----------------  -----------------  -----------------
       1        0.000000000000     0.000000000000     0.000000225536
       2        0.000000000000     0.000000000000    -0.000000225536


			-----------------------------------------
			 OPTKING 2.0: for geometry optimizations 
			  - R.A. King,  Bethel University        
			-----------------------------------------

	Previous internal coordinate definitions found.
	---Fragment 1 Geometry and Gradient---
	 O           0.0000000000        0.0000000000       -0.1081676445
	 H           0.0000000000        0.0000000000        1.7166990127
	             0.0000000000        0.0000000000        0.0000002255
	             0.0000000000        0.0000000000       -0.0000002255

	---Fragment 1 Intrafragment Coordinates---
	 - Coordinate -           - BOHR/RAD -       - ANG/DEG -
	 R(1,2)           =         1.824867	       0.965678

	Current energy   :       -75.7011263073

	Energy change for the previous step:
		Projected    :        -0.0000000000
		Actual       :         0.0000000000

	Performing BFGS update.
	Previous computed or guess Hessian on step 1.
	Denominators (dg)(dq) or (dq)(dq) are very small.
	 Skipping Hessian update for step 4.
	Denominators (dg)(dq) or (dq)(dq) are very small.
	 Skipping Hessian update for step 3.
	Steps to be used in Hessian update: 2 1
	Taking RFO optimization step.
	Going to follow RFO solution 1.
	Using RFO vector 1.
	Norm of target step-size    0.00000
	Projected energy change by RFO approximation:        -0.0000000000

	Back-transformation to cartesian coordinates...
	Successfully converged to displaced geometry.

	--- Internal Coordinate Step in ANG or DEG, aJ/ANG or AJ/DEG ---
	 ---------------------------------------------------------------------------
	   Coordinate                Previous        Force       Change         New 
	   ----------                --------       ------       ------       ------
	    1 R(1,2)          =      0.965678     0.000002     0.000000     0.965678
	 ---------------------------------------------------------------------------
	Successfully symmetrized geometry.

  ==> Convergence Check <==

  Measures of convergence in internal coordinates in au.
  Criteria marked as inactive (o), active & met (*), and active & unmet ( ).
  ---------------------------------------------------------------------------------------------
   Step     Total Energy     Delta E     MAX Force     RMS Force      MAX Disp      RMS Disp   
  ---------------------------------------------------------------------------------------------
    Convergence Criteria             o    2.00e-06 *    1.00e-06 *    6.00e-06 *    4.00e-06 *
  ---------------------------------------------------------------------------------------------
      5     -75.70112631    1.03e-11 o    2.26e-07 *    2.26e-07 *    4.11e-07 *    4.11e-07 *  ~
  ---------------------------------------------------------------------------------------------


  **** Optimization is complete! (in 5 steps) ****

  ==> Optimization Summary <==

  Measures of convergence in internal coordinates in au.
  --------------------------------------------------------------------------------------------------------------- ~
   Step         Total Energy             Delta E       MAX Force       RMS Force        MAX Disp        RMS Disp  ~
  --------------------------------------------------------------------------------------------------------------- ~
      1     -75.700823094906    -75.700823094906      0.01843128      0.01843128      0.03165903      0.03165903  ~
      2     -75.701125337410     -0.000302242503      0.00100210      0.00100210      0.00182024      0.00182024  ~
      3     -75.701126303774     -0.000000966364      0.00006077      0.00006077      0.00011075      0.00011075  ~
      4     -75.701126307353     -0.000000003578      0.00000370      0.00000370      0.00000675      0.00000675  ~
      5     -75.701126307342      0.000000000010      0.00000023      0.00000023      0.00000041      0.00000041  ~
  --------------------------------------------------------------------------------------------------------------- ~

	Writing optimization data to binary file.
	Final energy is    -75.7011263073422
	Final (previous) structure:
	Cartesian Geometry (in Angstrom)
	    O     0.0000000000   0.0000000000  -0.0572398522
	    H     0.0000000000   0.0000000000   0.9084379915
	Saving final (previous) structure.
			--------------------------
			 OPTKING Finished Execution 
			--------------------------

    Final optimized geometry and variables:
    Molecular point group: c2v
    Full point group: C_inf_v

    Geometry (in Angstrom), charge = 0, multiplicity = 2:

    O       
    H             1          R1

    R1        =    0.9656778475

	Removing binary optimization data file.
	Cleaning optimization helper files.

    Psi4 stopped on: Tuesday, 23 February 2021 03:09PM
    Psi4 wall time for execution: 1:34:06.62

*** Psi4 exiting successfully. Buy a developer a beer!
