
    -----------------------------------------------------------------------
          Psi4: An Open-Source Ab Initio Electronic Structure Package
                               Psi4 1.3.2 release

                         Git: Rev {HEAD} ecbda83 


    R. M. Parrish, L. A. Burns, D. G. A. Smith, A. C. Simmonett,
    A. E. DePrince III, E. G. Hohenstein, U. Bozkaya, A. Yu. Sokolov,
    R. Di Remigio, R. M. Richard, J. F. Gonthier, A. M. James,
    H. R. McAlexander, A. Kumar, M. Saitow, X. Wang, B. P. Pritchard,
    P. Verma, H. F. Schaefer III, K. Patkowski, R. A. King, E. F. Valeev,
    F. A. Evangelista, J. M. Turney, T. D. Crawford, and C. D. Sherrill,
    J. Chem. Theory Comput. 13(7) pp 3185--3197 (2017).
    (doi: 10.1021/acs.jctc.7b00174)


                         Additional Contributions by
    P. Kraus, H. Kruse, M. H. Lechner, M. C. Schieber, R. A. Shaw,
    A. Alenaizan, R. Galvelis, Z. L. Glick, S. Lehtola, and J. P. Misiewicz

    -----------------------------------------------------------------------


    Psi4 started on: Monday, 08 March 2021 09:39AM

    Process ID: 215772
    Host:       c5-20.compute.lan
    PSIDATADIR: /apps/gb/PSI4/1.3.2/share/psi4
    Memory:     500.0 MiB
    Threads:    12
    
  ==> Input File <==

--------------------------------------------------------------------------
memory 4 GB

molecule  {
0 1
O    0.000000000000    0.000000000000   -0.071961263524
H    0.000000000000   -0.764136353368    0.571038736476
H   -0.000000000000    0.764136353368    0.571038736476
}
set {
basis aug-cc-pvtz
reference uhf
e_convergence 10
scf_type pk
freeze_core true
}

set ccenergy {
e_convergence 10
r_convergence 10
}

e = energy('ccsd(t)')

print_out('Stephenergy {}'.format(e))

--------------------------------------------------------------------------

  Memory set to   3.725 GiB by Python driver.

*** tstart() called on c5-20.compute.lan
*** at Mon Mar  8 09:39:48 2021

   => Loading Basis Set <=

    Name: AUG-CC-PVTZ
    Role: ORBITAL
    Keyword: BASIS
    atoms 1   entry O          line   327 file /apps/gb/PSI4/1.3.2/share/psi4/basis/aug-cc-pvtz.gbs 
    atoms 2-3 entry H          line    36 file /apps/gb/PSI4/1.3.2/share/psi4/basis/aug-cc-pvtz.gbs 


         ---------------------------------------------------------
                                   SCF
               by Justin Turney, Rob Parrish, Andy Simmonett
                          and Daniel G. A. Smith
                              UHF Reference
                       12 Threads,   3814 MiB Core
         ---------------------------------------------------------

  ==> Geometry <==

    Molecular point group: c2v
    Full point group: C2v

    Geometry (in Angstrom), charge = 0, multiplicity = 1:

       Center              X                  Y                   Z               Mass       
    ------------   -----------------  -----------------  -----------------  -----------------
         O           -0.000000000000     0.000000000000    -0.071961263524    15.994914619570
         H            0.000000000000    -0.764136353368     0.571038736476     1.007825032230
         H           -0.000000000000     0.764136353368     0.571038736476     1.007825032230

  Running in c2v symmetry.

  Rotational constants: A =     22.77744  B =     14.32319  C =      8.79353 [cm^-1]
  Rotational constants: A = 682850.32427  B = 429398.31864  C = 263623.41100 [MHz]
  Nuclear repulsion =    8.824320331337438

  Charge       = 0
  Multiplicity = 1
  Electrons    = 10
  Nalpha       = 5
  Nbeta        = 5

  ==> Algorithm <==

  SCF Algorithm Type is PK.
  DIIS enabled.
  MOM disabled.
  Fractional occupation disabled.
  Guess Type is SAD.
  Energy threshold   = 1.00e-10
  Density threshold  = 1.00e-08
  Integral threshold = 0.00e+00

  ==> Primary Basis <==

  Basis Set: AUG-CC-PVTZ
    Blend: AUG-CC-PVTZ
    Number of shells: 32
    Number of basis function: 92
    Number of Cartesian functions: 105
    Spherical Harmonics?: true
    Max angular momentum: 3

  ==> Pre-Iterations <==

   -------------------------------------------------------
    Irrep   Nso     Nmo     Nalpha   Nbeta   Ndocc  Nsocc
   -------------------------------------------------------
     A1        35      35       0       0       0       0
     A2        12      12       0       0       0       0
     B1        18      18       0       0       0       0
     B2        27      27       0       0       0       0
   -------------------------------------------------------
    Total      92      92       5       5       5       0
   -------------------------------------------------------

  ==> Integral Setup <==

  Using in-core PK algorithm.
   Calculation information:
      Number of atoms:                   3
      Number of AO shells:              32
      Number of primitives:             52
      Number of atomic orbitals:       105
      Number of basis functions:        92

      Integral cutoff                 1.00e-12
      Number of threads:                12

  Performing in-core PK
  Using 18305562 doubles for integral storage.
  We computed 240258 shell quartets total.
  Whereas there are 139656 unique shell quartets.
    72.04 percent of shell quartets recomputed by reordering.

  ==> DiskJK: Disk-Based J/K Matrices <==

    J tasked:                  Yes
    K tasked:                  Yes
    wK tasked:                  No
    Memory [MiB]:             2861
    Schwarz Cutoff:          1E-12

    OpenMP threads:             12

  Minimum eigenvalue in the overlap matrix is 4.2973530315E-04.
  Using Symmetric Orthogonalization.

  SCF Guess: Superposition of Atomic Densities via on-the-fly atomic UHF.

  ==> Iterations <==

                        Total Energy        Delta E     RMS |[F,P]|

   @UHF iter SAD:   -75.43409204354015   -7.54341e+01   0.00000e+00 
   @UHF iter   1:   -75.96738257440055   -5.33291e-01   9.47098e-03 DIIS
   @UHF iter   2:   -76.01868181410194   -5.12992e-02   6.78448e-03 DIIS
   @UHF iter   3:   -76.05380468261689   -3.51229e-02   4.62723e-04 DIIS
   @UHF iter   4:   -76.05424752631214   -4.42844e-04   1.20725e-04 DIIS
   @UHF iter   5:   -76.05428176439543   -3.42381e-05   2.86587e-05 DIIS
   @UHF iter   6:   -76.05428474372864   -2.97933e-06   6.14917e-06 DIIS
   @UHF iter   7:   -76.05428488864612   -1.44917e-07   1.00505e-06 DIIS
   @UHF iter   8:   -76.05428489191569   -3.26956e-09   1.75595e-07 DIIS
   @UHF iter   9:   -76.05428489199434   -7.86571e-11   4.33126e-08 DIIS
   @UHF iter  10:   -76.05428489199971   -5.37170e-12   7.13912e-09 DIIS
  Energy and wave function converged.


  ==> Post-Iterations <==

   @Spin Contamination Metric:  -7.993605777E-15
   @S^2 Expected:                0.000000000E+00
   @S^2 Observed:               -7.993605777E-15
   @S   Expected:                0.000000000E+00
   @S   Observed:                0.000000000E+00

    Orbital Energies [Eh]
    ---------------------

    Alpha Occupied:                                                       

       1A1   -20.576430     2A1    -1.336394     1B2    -0.687124  
       3A1    -0.585973     1B1    -0.508578  

    Alpha Virtual:                                                        

       4A1     0.028574     2B2     0.047812     5A1     0.134950  
       2B1     0.161212     6A1     0.174729     3B2     0.184085  
       4B2     0.221921     7A1     0.243844     1A2     0.266865  
       3B1     0.293910     8A1     0.306406     5B2     0.364963  
       9A1     0.429519     6B2     0.457509     7B2     0.594771  
      10A1     0.659466    11A1     0.702553     2A2     0.727137  
       4B1     0.732272    12A1     0.822921     5B1     0.847340  
      13A1     0.901614     8B2     0.903792     6B1     0.916840  
       3A2     0.919924     9B2     0.930281    14A1     0.949319  
      15A1     1.006439    10B2     1.030779     7B1     1.074730  
      11B2     1.097819     4A2     1.171054    16A1     1.176429  
      12B2     1.276221     5A2     1.495028    17A1     1.506593  
       8B1     1.550730    13B2     1.823020    18A1     1.829853  
      14B2     1.927217    19A1     2.087563     9B1     2.260703  
       6A2     2.306314    20A1     2.333658    21A1     2.414999  
      10B1     2.415476    15B2     2.443792    22A1     2.499689  
      16B2     2.695513    11B1     2.701580    23A1     2.752408  
      17B2     2.770229     7A2     2.863570    18B2     3.605465  
      24A1     3.648171     8A2     4.008324    12B1     4.038778  
      25A1     4.090789    19B2     4.212161    13B1     4.215943  
      26A1     4.346978     9A2     4.357241    14B1     4.381333  
      20B2     4.496068    27A1     4.688677    21B2     4.754846  
      10A2     5.036748    22B2     5.095942    28A1     5.175145  
      23B2     5.194835    15B1     5.421772    29A1     5.546494  
      30A1     6.175563    24B2     6.498242    16B1     6.695573  
      31A1     6.872080    17B1     7.067854    25B2     7.145633  
      11A2     7.225162    18B1     7.244305    12A2     7.344123  
      32A1     7.350241    33A1     7.422177    34A1     7.797609  
      26B2     7.850572    27B2     8.629969    35A1    14.612145  

    Beta Occupied:                                                        

       1A1   -20.576430     2A1    -1.336394     1B2    -0.687124  
       3A1    -0.585973     1B1    -0.508578  

    Beta Virtual:                                                         

       4A1     0.028574     2B2     0.047812     5A1     0.134950  
       2B1     0.161212     6A1     0.174729     3B2     0.184085  
       4B2     0.221921     7A1     0.243844     1A2     0.266865  
       3B1     0.293910     8A1     0.306406     5B2     0.364963  
       9A1     0.429519     6B2     0.457509     7B2     0.594771  
      10A1     0.659466    11A1     0.702553     2A2     0.727137  
       4B1     0.732272    12A1     0.822921     5B1     0.847340  
      13A1     0.901614     8B2     0.903792     6B1     0.916840  
       3A2     0.919924     9B2     0.930281    14A1     0.949319  
      15A1     1.006439    10B2     1.030779     7B1     1.074730  
      11B2     1.097819     4A2     1.171054    16A1     1.176429  
      12B2     1.276221     5A2     1.495028    17A1     1.506593  
       8B1     1.550730    13B2     1.823020    18A1     1.829853  
      14B2     1.927217    19A1     2.087563     9B1     2.260703  
       6A2     2.306314    20A1     2.333658    21A1     2.414999  
      10B1     2.415476    15B2     2.443792    22A1     2.499689  
      16B2     2.695513    11B1     2.701580    23A1     2.752408  
      17B2     2.770229     7A2     2.863570    18B2     3.605465  
      24A1     3.648171     8A2     4.008324    12B1     4.038778  
      25A1     4.090789    19B2     4.212161    13B1     4.215943  
      26A1     4.346978     9A2     4.357241    14B1     4.381333  
      20B2     4.496068    27A1     4.688677    21B2     4.754846  
      10A2     5.036748    22B2     5.095942    28A1     5.175145  
      23B2     5.194835    15B1     5.421772    29A1     5.546494  
      30A1     6.175563    24B2     6.498242    16B1     6.695573  
      31A1     6.872080    17B1     7.067854    25B2     7.145633  
      11A2     7.225162    18B1     7.244305    12A2     7.344123  
      32A1     7.350241    33A1     7.422177    34A1     7.797609  
      26B2     7.850572    27B2     8.629969    35A1    14.612145  

    Final Occupation by Irrep:
             A1    A2    B1    B2 
    DOCC [     3,    0,    1,    1 ]
    SOCC [     0,    0,    0,    0 ]

  @UHF Final Energy:   -76.05428489199971

   => Energetics <=

    Nuclear Repulsion Energy =              8.8243203313374377
    One-Electron Energy =                -122.3682123882528572
    Two-Electron Energy =                  37.4896071649157108
    Total Energy =                        -76.0542848919997141

  UHF NO Occupations:
  HONO-2 :    1 B1 2.0000000
  HONO-1 :    2 A1 2.0000000
  HONO-0 :    3 A1 2.0000000
  LUNO+0 :    4 A1 0.0000000
  LUNO+1 :    2 B1 0.0000000
  LUNO+2 :    5 A1 0.0000000
  LUNO+3 :    6 A1 0.0000000


Computation Completed


Properties will be evaluated at   0.000000,   0.000000,   0.000000 [a0]

Properties computed using the SCF density matrix

  Nuclear Dipole Moment: [e a0]
     X:     0.0000      Y:     0.0000      Z:     1.0703

  Electronic Dipole Moment: [e a0]
     X:     0.0000      Y:     0.0000      Z:    -0.2468

  Dipole Moment: [e a0]
     X:     0.0000      Y:     0.0000      Z:     0.8235     Total:     0.8235

  Dipole Moment: [D]
     X:     0.0000      Y:     0.0000      Z:     2.0931     Total:     2.0931


*** tstop() called on c5-20.compute.lan at Mon Mar  8 09:39:51 2021
Module time:
	user time   =      10.82 seconds =       0.18 minutes
	system time =       0.32 seconds =       0.01 minutes
	total time  =          3 seconds =       0.05 minutes
Total time:
	user time   =      10.82 seconds =       0.18 minutes
	system time =       0.32 seconds =       0.01 minutes
	total time  =          3 seconds =       0.05 minutes
 MINTS: Wrapper to libmints.
   by Justin Turney

   Calculation information:
      Number of threads:                12
      Number of atoms:                   3
      Number of AO shells:              32
      Number of SO shells:              23
      Number of primitives:             52
      Number of atomic orbitals:       105
      Number of basis functions:        92

      Number of irreps:                  4
      Integral cutoff                 0.00e+00
      Number of functions per irrep: [  35   12   18   27 ]

 OEINTS: Overlap, kinetic, potential, dipole, and quadrupole integrals
         stored in file 35.

      Computing two-electron integrals...done
      Computed 2218118 non-zero two-electron integrals.
        Stored in file 33.


*** tstart() called on c5-20.compute.lan
*** at Mon Mar  8 09:39:52 2021


	Wfn Parameters:
	--------------------
	Wavefunction         = CCSD_T
	Number of irreps     = 4
	Number of MOs        = 92
	Number of active MOs = 91
	AO-Basis             = NONE
	Semicanonical        = false
	Reference            = UHF
	Print Level          = 1

	IRREP	# MOs	# FZDC	# DOCC	# SOCC	# VIRT	# FZVR
	-----	-----	------	------	------	------	------
	 A1	   35	    1	    2	    0	    32	    0
	 A2	   12	    0	    0	    0	    12	    0
	 B1	   18	    0	    1	    0	    17	    0
	 B2	   27	    0	    1	    0	    26	    0
	Transforming integrals...
	IWL integrals will be deleted.
	(OO|OO)...
	Presorting SO-basis two-electron integrals.
	Sorting File: SO Ints (nn|nn) nbuckets = 1
	Transforming the one-electron integrals and constructing Fock matrices
	Starting AA/AB first half-transformation.
	Sorting AA/AB half-transformed integrals.
	Starting BB first half-transformation.
	Sorting BB half-transformed integrals.
	First half integral transformation complete.
	Starting AA second half-transformation.
	Starting AB second half-transformation.
	Starting BB second half-transformation.
	Two-electron integral transformation complete.
	(OO|OV)...
	Starting AA second half-transformation.
	Starting AB second half-transformation.
	Starting BB second half-transformation.
	Two-electron integral transformation complete.
	(OO|VV)...
	Starting AA second half-transformation.
	Starting AB second half-transformation.
	Starting BB second half-transformation.
	Two-electron integral transformation complete.
	(OV|OO)...
	Starting AA/AB first half-transformation.
	Sorting AA/AB half-transformed integrals.
	Starting BB first half-transformation.
	Sorting BB half-transformed integrals.
	First half integral transformation complete.
	Starting AA second half-transformation.
	Starting AB second half-transformation.
	Starting BB second half-transformation.
	Two-electron integral transformation complete.
	(OV|OV)...
	Starting AA second half-transformation.
	Starting AB second half-transformation.
	Starting BB second half-transformation.
	Two-electron integral transformation complete.
	(OV|VV)...
	Starting AA second half-transformation.
	Starting AB second half-transformation.
	Starting BB second half-transformation.
	Two-electron integral transformation complete.
	(VV|OO)...
	Starting AA/AB first half-transformation.
	Sorting AA/AB half-transformed integrals.
	Starting BB first half-transformation.
	Sorting BB half-transformed integrals.
	First half integral transformation complete.
	Starting AA second half-transformation.
	Starting AB second half-transformation.
	Starting BB second half-transformation.
	Two-electron integral transformation complete.
	(VV|OV)...
	Starting AA second half-transformation.
	Starting AB second half-transformation.
	Starting BB second half-transformation.
	Two-electron integral transformation complete.
	(VV|VV)...
	Starting AA second half-transformation.
	Starting AB second half-transformation.
	Starting BB second half-transformation.
	Two-electron integral transformation complete.
	Frozen core energy     =    -61.22507189077274

	Size of irrep 0 of <AB|CD> integrals:      1.047 (MW) /      8.372 (MB)
	Size of irrep 1 of <AB|CD> integrals:      0.682 (MW) /      5.458 (MB)
	Size of irrep 2 of <AB|CD> integrals:      0.733 (MW) /      5.862 (MB)
	Size of irrep 3 of <AB|CD> integrals:      1.073 (MW) /      8.586 (MB)
	Total:                                     3.535 (MW) /     28.279 (MB)

	Size of irrep 0 of <ab|cd> integrals:      1.047 (MW) /      8.372 (MB)
	Size of irrep 1 of <ab|cd> integrals:      0.682 (MW) /      5.458 (MB)
	Size of irrep 2 of <ab|cd> integrals:      0.733 (MW) /      5.862 (MB)
	Size of irrep 3 of <ab|cd> integrals:      1.073 (MW) /      8.586 (MB)
	Total:                                     3.535 (MW) /     28.279 (MB)

	Size of irrep 0 of <Ab|Cd> integrals:      4.550 (MW) /     36.398 (MB)
	Size of irrep 1 of <Ab|Cd> integrals:      2.729 (MW) /     21.833 (MB)
	Size of irrep 2 of <Ab|Cd> integrals:      2.931 (MW) /     23.448 (MB)
	Size of irrep 3 of <Ab|Cd> integrals:      4.293 (MW) /     34.345 (MB)
	Total:                                    14.503 (MW) /    116.023 (MB)

	Size of irrep 0 of <IA|BC> integrals:      0.228 (MW) /      1.826 (MB)
	Size of irrep 1 of <IA|BC> integrals:      0.111 (MW) /      0.885 (MB)
	Size of irrep 2 of <IA|BC> integrals:      0.134 (MW) /      1.068 (MB)
	Size of irrep 3 of <IA|BC> integrals:      0.199 (MW) /      1.591 (MB)
	Total:                                     0.671 (MW) /      5.371 (MB)

	Size of irrep 0 of <ia|bc> integrals:      0.228 (MW) /      1.826 (MB)
	Size of irrep 1 of <ia|bc> integrals:      0.111 (MW) /      0.885 (MB)
	Size of irrep 2 of <ia|bc> integrals:      0.134 (MW) /      1.068 (MB)
	Size of irrep 3 of <ia|bc> integrals:      0.199 (MW) /      1.591 (MB)
	Total:                                     0.671 (MW) /      5.371 (MB)

	Size of irrep 0 of <Ia|Bc> integrals:      0.228 (MW) /      1.826 (MB)
	Size of irrep 1 of <Ia|Bc> integrals:      0.111 (MW) /      0.885 (MB)
	Size of irrep 2 of <Ia|Bc> integrals:      0.134 (MW) /      1.068 (MB)
	Size of irrep 3 of <Ia|Bc> integrals:      0.199 (MW) /      1.591 (MB)
	Total:                                     0.671 (MW) /      5.371 (MB)

	Size of irrep 0 of <iA|bC> integrals:      0.228 (MW) /      1.826 (MB)
	Size of irrep 1 of <iA|bC> integrals:      0.111 (MW) /      0.885 (MB)
	Size of irrep 2 of <iA|bC> integrals:      0.134 (MW) /      1.068 (MB)
	Size of irrep 3 of <iA|bC> integrals:      0.199 (MW) /      1.591 (MB)
	Total:                                     0.671 (MW) /      5.371 (MB)

	Size of irrep 0 of tIjAb amplitudes:       0.013 (MW) /      0.102 (MB)
	Size of irrep 1 of tIjAb amplitudes:       0.003 (MW) /      0.026 (MB)
	Size of irrep 2 of tIjAb amplitudes:       0.007 (MW) /      0.055 (MB)
	Size of irrep 3 of tIjAb amplitudes:       0.008 (MW) /      0.066 (MB)
	Total:                                     0.031 (MW) /      0.250 (MB)

	Nuclear Rep. energy          =      8.82432033133744
	SCF energy                   =    -76.05428489199971
	One-electron energy          =    -41.07092752446621
	Two-electron (AA) energy     =      3.38588255661112
	Two-electron (BB) energy     =      3.38588255661110
	Two-electron (AB) energy     =     10.64562907867948
	Two-electron energy          =     17.41739419190169
	Reference energy             =    -76.05428489199983

*** tstop() called on c5-20.compute.lan at Mon Mar  8 09:39:57 2021
Module time:
	user time   =       2.33 seconds =       0.04 minutes
	system time =       2.45 seconds =       0.04 minutes
	total time  =          5 seconds =       0.08 minutes
Total time:
	user time   =      14.64 seconds =       0.24 minutes
	system time =       2.88 seconds =       0.05 minutes
	total time  =          9 seconds =       0.15 minutes
            **************************
            *                        *
            *        CCENERGY        *
            *                        *
            **************************

    Nuclear Rep. energy (wfn)     =    8.824320331337438
    SCF energy          (wfn)     =  -76.054284891999714
    Reference energy    (file100) =  -76.054284891999828

    Input parameters:
    -----------------
    Wave function   =     CCSD_T
    Reference wfn   =     UHF
    Brueckner       =     No
    Memory (Mbytes) =     4000.0
    Maxiter         =     50
    R_Convergence   =     1.0e-10
    E_Convergence   =     1.0e-10
    Restart         =     Yes
    DIIS            =     Yes
    AO Basis        =     NONE
    ABCD            =     NEW
    Cache Level     =     2
    Cache Type      =     LRU
    Print Level     =     1
    Num. of threads =     12
    # Amps to Print =     10
    Print MP2 Amps? =     No
    Analyze T2 Amps =     No
    Print Pair Ener =     No
    Local CC        =     No
    SCS-MP2         =     False
    SCSN-MP2        =     False
    SCS-CCSD        =     False

MP2 correlation energy -0.2721593866233529
                Solving CC Amplitude Equations
                ------------------------------
  Iter             Energy              RMS        T1Diag      D1Diag    New D1Diag    D2Diag
  ----     ---------------------    ---------   ----------  ----------  ----------   --------
     0        -0.272159386623353    0.000e+00    0.000000    0.000000    0.000000    0.000000
     1        -0.269634764261089    5.080e-02    0.012868    0.000000    0.000000    0.000000
     2        -0.275172953291402    1.440e-02    0.012603    0.000000    0.000000    0.000000
     3        -0.276540943051343    6.814e-03    0.014658    0.000000    0.000000    0.000000
     4        -0.276429558256222    1.391e-03    0.015010    0.000000    0.000000    0.000000
     5        -0.276413652681132    5.137e-04    0.015157    0.000000    0.000000    0.000000
     6        -0.276414522683737    1.291e-04    0.015190    0.000000    0.000000    0.000000
     7        -0.276413092948437    4.484e-05    0.015196    0.000000    0.000000    0.000000
     8        -0.276413181802324    1.265e-05    0.015199    0.000000    0.000000    0.000000
     9        -0.276413223397532    3.951e-06    0.015199    0.000000    0.000000    0.000000
    10        -0.276413079190987    1.590e-06    0.015199    0.000000    0.000000    0.000000
    11        -0.276413103852334    5.547e-07    0.015199    0.000000    0.000000    0.000000
    12        -0.276413096336509    2.065e-07    0.015199    0.000000    0.000000    0.000000
    13        -0.276413098607912    6.038e-08    0.015199    0.000000    0.000000    0.000000
    14        -0.276413100043713    1.567e-08    0.015199    0.000000    0.000000    0.000000
    15        -0.276413100128620    4.777e-09    0.015199    0.000000    0.000000    0.000000
    16        -0.276413100157203    1.405e-09    0.015199    0.000000    0.000000    0.000000
    17        -0.276413100176017    4.705e-10    0.015199    0.000000    0.000000    0.000000
    18        -0.276413100175199    1.184e-10    0.015199    0.000000    0.000000    0.000000
    19        -0.276413100175742    3.690e-11    0.015199    0.000000    0.000000    0.000000

    Iterations converged.


    Largest TIA Amplitudes:
              2  44        -0.0164917290
              2  45        -0.0139472043
              1   1         0.0086136771
              1   4        -0.0076289952
              3  73         0.0057554822
              2  54         0.0043038064
              3  69         0.0041888894
              2  46         0.0037325457
              1  15        -0.0037113804
              3  80         0.0036769033

    Largest Tia Amplitudes:
              2  44        -0.0164917290
              2  45        -0.0139472043
              1   1         0.0086136771
              1   4        -0.0076289952
              3  73         0.0057554822
              2  54         0.0043038064
              3  69         0.0041888894
              2  46         0.0037325457
              1  15        -0.0037113804
              3  80         0.0036769033

    Largest TIJAB Amplitudes:
      2   1  46   7        -0.0095800217
      3   1  66   6        -0.0091621844
      3   2  65  49        -0.0083633960
      3   2  33   6        -0.0081938386
      2   1  49   9         0.0080095776
      3   1  65   9         0.0078907003
      3   2  65  44        -0.0078453501
      3   2  65  45        -0.0074425745
      3   2  65  48        -0.0073804756
      3   1  66  13         0.0071161656

    Largest Tijab Amplitudes:
      2   1  46   7        -0.0095800217
      3   1  66   6        -0.0091621844
      3   2  65  49        -0.0083633960
      3   2  33   6        -0.0081938386
      2   1  49   9         0.0080095776
      3   1  65   9         0.0078907003
      3   2  65  44        -0.0078453501
      3   2  65  45        -0.0074425745
      3   2  65  48        -0.0073804756
      3   1  66  13         0.0071161656

    Largest TIjAb Amplitudes:
      3   3  65  65        -0.0252268147
      1   1   9   9        -0.0184057626
      2   2  49  49        -0.0170211380
      3   3  65  69        -0.0160930998
      3   3  69  65        -0.0160930998
      3   3  66  66        -0.0144895398
      3   3  62  65        -0.0144184352
      3   3  65  62        -0.0144184352
      2   2  48  48        -0.0142037122
      2   2  48  49        -0.0135812902

    SCF energy       (wfn)                    =  -76.054284891999714
    Reference energy (file100)                =  -76.054284891999828

    Opposite-spin MP2 correlation energy      =   -0.206129762263958
    Same-spin MP2 correlation energy          =   -0.066029624359394
    MP2 correlation energy                    =   -0.272159386623353
      * MP2 total energy                      =  -76.326444278623185

    Opposite-spin CCSD correlation energy     =   -0.218286439798464
    Same-spin CCSD correlation energy         =   -0.058126660377278
    CCSD correlation energy                   =   -0.276413100175742
      * CCSD total energy                     =  -76.330697992175573

            **************************
            *                        *
            *        CCTRIPLES       *
            *                        *
            **************************


    Wave function   =    CCSD_T
    Reference wfn   =      UHF

    Nuclear Rep. energy (wfn)                =    8.824320331337438
    SCF energy          (wfn)                =  -76.054284891999714
    Reference energy    (file100)            =  -76.054284891999828
    CCSD energy         (file100)            =   -0.276413100175742
    Total CCSD energy   (file100)            =  -76.330697992175573

    Number of ijk index combinations:
    Spin Case AAA:                                   4
    Spin Case BBB:                                   4
    Spin Case AAB:                                  24
    Spin Case ABB:                                  24
    AAA (T) energy                             =   -0.000199019022762
    BBB (T) energy                             =   -0.000199019022762
    AAB (T) energy                             =   -0.004347206349998
    ABB (T) energy                             =   -0.004347206349998
    (T) energy                                   =   -0.009092450745520
      * CCSD(T) total energy                     =  -76.339790442921085

Stephenergy -76.33979044292109
    Psi4 stopped on: Monday, 08 March 2021 09:40AM
    Psi4 wall time for execution: 0:00:20.33

*** Psi4 exiting successfully. Buy a developer a beer!
