
    -----------------------------------------------------------------------
          Psi4: An Open-Source Ab Initio Electronic Structure Package
                               Psi4 1.3.2 release

                         Git: Rev {HEAD} ecbda83 


    R. M. Parrish, L. A. Burns, D. G. A. Smith, A. C. Simmonett,
    A. E. DePrince III, E. G. Hohenstein, U. Bozkaya, A. Yu. Sokolov,
    R. Di Remigio, R. M. Richard, J. F. Gonthier, A. M. James,
    H. R. McAlexander, A. Kumar, M. Saitow, X. Wang, B. P. Pritchard,
    P. Verma, H. F. Schaefer III, K. Patkowski, R. A. King, E. F. Valeev,
    F. A. Evangelista, J. M. Turney, T. D. Crawford, and C. D. Sherrill,
    J. Chem. Theory Comput. 13(7) pp 3185--3197 (2017).
    (doi: 10.1021/acs.jctc.7b00174)


                         Additional Contributions by
    P. Kraus, H. Kruse, M. H. Lechner, M. C. Schieber, R. A. Shaw,
    A. Alenaizan, R. Galvelis, Z. L. Glick, S. Lehtola, and J. P. Misiewicz

    -----------------------------------------------------------------------


    Psi4 started on: Monday, 08 March 2021 05:45PM

    Process ID: 174614
    Host:       c5-13.compute.lan
    PSIDATADIR: /apps/gb/PSI4/1.3.2/share/psi4
    Memory:     500.0 MiB
    Threads:    12
    
  ==> Input File <==

--------------------------------------------------------------------------
memory 4 GB

molecule  {
0 3
O    0.000000000000    0.000000000000    1.270170376227
H    0.000000000000   -0.759829054300    1.857791642109
H   -0.000000000000    0.759829054300    1.857791642109
O    0.000000000000    0.000000000000   -1.504285901832
}
set {
basis aug-cc-pvtz
reference uhf
e_convergence 10
scf_type pk
freeze_core true
}

set ccenergy {
e_convergence 10
r_convergence 10
}

e = energy('ccsd(t)')

print_out('Stephenergy {}'.format(e))

--------------------------------------------------------------------------

  Memory set to   3.725 GiB by Python driver.

*** tstart() called on c5-13.compute.lan
*** at Mon Mar  8 17:45:17 2021

   => Loading Basis Set <=

    Name: AUG-CC-PVTZ
    Role: ORBITAL
    Keyword: BASIS
    atoms 1, 4 entry O          line   327 file /apps/gb/PSI4/1.3.2/share/psi4/basis/aug-cc-pvtz.gbs 
    atoms 2-3  entry H          line    36 file /apps/gb/PSI4/1.3.2/share/psi4/basis/aug-cc-pvtz.gbs 


         ---------------------------------------------------------
                                   SCF
               by Justin Turney, Rob Parrish, Andy Simmonett
                          and Daniel G. A. Smith
                              UHF Reference
                       12 Threads,   3814 MiB Core
         ---------------------------------------------------------

  ==> Geometry <==

    Molecular point group: c2v
    Full point group: C2v

    Geometry (in Angstrom), charge = 0, multiplicity = 3:

       Center              X                  Y                   Z               Mass       
    ------------   -----------------  -----------------  -----------------  -----------------
         O            0.000000000000     0.000000000000     1.270170376227    15.994914619570
         H            0.000000000000    -0.759829054300     1.857791642109     1.007825032230
         H           -0.000000000000     0.759829054300     1.857791642109     1.007825032230
         O            0.000000000000     0.000000000000    -1.504285901832    15.994914619570

  Running in c2v symmetry.

  Rotational constants: A =     14.48604  B =      0.24447  C =      0.24041 [cm^-1]
  Rotational constants: A = 434280.44127  B =   7328.96199  C =   7207.33033 [MHz]
  Nuclear repulsion =   23.826097916292198

  Charge       = 0
  Multiplicity = 3
  Electrons    = 18
  Nalpha       = 10
  Nbeta        = 8

  ==> Algorithm <==

  SCF Algorithm Type is PK.
  DIIS enabled.
  MOM disabled.
  Fractional occupation disabled.
  Guess Type is SAD.
  Energy threshold   = 1.00e-10
  Density threshold  = 1.00e-08
  Integral threshold = 0.00e+00

  ==> Primary Basis <==

  Basis Set: AUG-CC-PVTZ
    Blend: AUG-CC-PVTZ
    Number of shells: 46
    Number of basis function: 138
    Number of Cartesian functions: 160
    Spherical Harmonics?: true
    Max angular momentum: 3

  ==> Pre-Iterations <==

   -------------------------------------------------------
    Irrep   Nso     Nmo     Nalpha   Nbeta   Ndocc  Nsocc
   -------------------------------------------------------
     A1        54      54       0       0       0       0
     A2        17      17       0       0       0       0
     B1        29      29       0       0       0       0
     B2        38      38       0       0       0       0
   -------------------------------------------------------
    Total     138     138      10       8       8       2
   -------------------------------------------------------

  ==> Integral Setup <==

  Using in-core PK algorithm.
   Calculation information:
      Number of atoms:                   4
      Number of AO shells:              46
      Number of primitives:             82
      Number of atomic orbitals:       160
      Number of basis functions:       138

      Integral cutoff                 1.00e-12
      Number of threads:                12

  Performing in-core PK
  Using 91996872 doubles for integral storage.
  We computed 909604 shell quartets total.
  Whereas there are 584821 unique shell quartets.
    55.54 percent of shell quartets recomputed by reordering.

  ==> DiskJK: Disk-Based J/K Matrices <==

    J tasked:                  Yes
    K tasked:                  Yes
    wK tasked:                  No
    Memory [MiB]:             2861
    Schwarz Cutoff:          1E-12

    OpenMP threads:             12

  Minimum eigenvalue in the overlap matrix is 3.2235159693E-04.
  Using Symmetric Orthogonalization.

  SCF Guess: Superposition of Atomic Densities via on-the-fly atomic UHF.

  ==> Iterations <==

                        Total Energy        Delta E     RMS |[F,P]|

   @UHF iter SAD:  -149.38248786970178   -1.49382e+02   0.00000e+00 
   @UHF iter   1:  -150.77005422323316   -1.38757e+00   6.69902e-03 DIIS
   @UHF iter   2:  -150.84083163886305   -7.07774e-02   4.25385e-03 DIIS
   @UHF iter   3:  -150.87207702378623   -3.12454e-02   5.58564e-04 DIIS
   @UHF iter   4:  -150.87344948626566   -1.37246e-03   1.70926e-04 DIIS
   @UHF iter   5:  -150.87358328417619   -1.33798e-04   6.97959e-05 DIIS
   @UHF iter   6:  -150.87361638183722   -3.30977e-05   2.08523e-05 DIIS
   @UHF iter   7:  -150.87361948456379   -3.10273e-06   5.35305e-06 DIIS
   @UHF iter   8:  -150.87361970865703   -2.24093e-07   1.48885e-06 DIIS
   @UHF iter   9:  -150.87361972551815   -1.68611e-08   3.69189e-07 DIIS
   @UHF iter  10:  -150.87361972661574   -1.09759e-09   1.77061e-07 DIIS
   @UHF iter  11:  -150.87361972695635   -3.40606e-10   6.89045e-08 DIIS
   @UHF iter  12:  -150.87361972700927   -5.29212e-11   1.48236e-08 DIIS
   @UHF iter  13:  -150.87361972701086   -1.59162e-12   4.44391e-09 DIIS
  Energy and wave function converged.


  ==> Post-Iterations <==

   @Spin Contamination Metric:   9.531026802E-03
   @S^2 Expected:                2.000000000E+00
   @S^2 Observed:                2.009531027E+00
   @S   Expected:                1.000000000E+00
   @S   Observed:                1.000000000E+00

    Orbital Energies [Eh]
    ---------------------

    Alpha Occupied:                                                       

       1A1   -20.684532     2A1   -20.570940     3A1    -1.393955  
       4A1    -1.355710     1B2    -0.719625     5A1    -0.688204  
       1B1    -0.685255     6A1    -0.586334     2B2    -0.586266  
       2B1    -0.514011  

    Alpha Virtual:                                                        

       7A1     0.029580     3B2     0.047668     8A1     0.118576  
       3B1     0.153995     9A1     0.159537     4B2     0.180298  
       5B2     0.186904     4B1     0.192715    10A1     0.197985  
       1A2     0.263657     6B2     0.264193    11A1     0.264767  
      12A1     0.314405     5B1     0.326953    13A1     0.376081  
       7B2     0.380320    14A1     0.450136     8B2     0.464538  
       9B2     0.600113     6B1     0.643486    15A1     0.647357  
       2A2     0.658169    16A1     0.666624    17A1     0.696149  
       3A2     0.721529    10B2     0.722623     7B1     0.767637  
      18A1     0.792976    19A1     0.818674     8B1     0.837762  
      20A1     0.861075     9B1     0.901269    11B2     0.918733  
       4A2     0.924788    12B2     0.946274    13B2     0.979803  
      21A1     0.990238    10B1     1.012663    22A1     1.046694  
      14B2     1.051642    11B1     1.122319     5A2     1.176811  
      23A1     1.191805    15B2     1.198766    16B2     1.326820  
      24A1     1.336023    25A1     1.444005     6A2     1.507680  
      12B1     1.595031    26A1     1.667030    27A1     1.811630  
      17B2     1.821533    18B2     1.978470    28A1     2.040781  
      13B1     2.047790    19B2     2.054055     7A2     2.056769  
      14B1     2.058928    29A1     2.079332    30A1     2.114889  
       8A2     2.118689    20B2     2.135334    31A1     2.141143  
      15B1     2.145217    32A1     2.252056    21B2     2.267307  
      16B1     2.303328     9A2     2.312129    17B1     2.434150  
      33A1     2.470145    22B2     2.481475    34A1     2.486518  
      35A1     2.696065    18B1     2.715920    23B2     2.721023  
      36A1     2.839890    24B2     2.863397    10A2     2.880633  
      25B2     3.692218    37A1     3.755920    11A2     4.013404  
      19B1     4.080616    20B1     4.099410    38A1     4.141893  
      26B2     4.183417    27B2     4.281776    21B1     4.291650  
      39A1     4.351495    12A2     4.382229    40A1     4.428679  
      22B1     4.451797    28B2     4.515104    41A1     4.789021  
      29B2     4.841314    30B2     5.141680    13A2     5.147406  
      31B2     5.251587    42A1     5.343765    23B1     5.518409  
      43A1     5.687654    44A1     6.198414    24B1     6.388986  
      45A1     6.408949    14A2     6.410141    32B2     6.423583  
      25B1     6.435503    33B2     6.485848    46A1     6.536062  
      34B2     6.581887    26B1     6.716381    27B1     6.902306  
      47A1     6.905653    15A2     6.924505    48A1     6.939586  
      35B2     6.985601    49A1     7.046426    28B1     7.136339  
      29B1     7.278809    16A2     7.307699    36B2     7.313997  
      17A2     7.353072    50A1     7.437136    51A1     7.545572  
      52A1     7.912645    37B2     7.917535    38B2     8.808703  
      53A1     8.860687    54A1    15.804278  

    Beta Occupied:                                                        

       1A1   -20.605666     2A1   -20.570477     3A1    -1.355024  
       4A1    -1.051147     1B2    -0.719296     5A1    -0.588057  
       1B1    -0.513350     2B2    -0.495685  

    Beta Virtual:                                                         

       6A1     0.029421     3B2     0.047749     2B1     0.086494  
       7A1     0.091923     8A1     0.140938     9A1     0.167055  
       3B1     0.170546     4B2     0.180915     5B2     0.190506  
      10A1     0.225547     4B1     0.253276     1A2     0.263659  
       6B2     0.264638    11A1     0.288396    12A1     0.316834  
       5B1     0.328252     7B2     0.380493    13A1     0.386380  
      14A1     0.451203     8B2     0.464733     9B2     0.601737  
      15A1     0.660447     6B1     0.667279     2A2     0.672594  
      16A1     0.673701    17A1     0.713384     3A2     0.721989  
      10B2     0.734831     7B1     0.778927    18A1     0.806316  
       8B1     0.846961    19A1     0.850912     4A2     0.925177  
      20A1     0.927942    11B2     0.936452    12B2     0.953364  
      13B2     0.983565     9B1     0.986663    21A1     0.997441  
      14B2     1.052736    22A1     1.052863    10B1     1.060417  
      11B1     1.138350     5A2     1.177006    23A1     1.193299  
      15B2     1.201470    16B2     1.329226    24A1     1.392626  
      25A1     1.483450     6A2     1.508097    12B1     1.597000  
      26A1     1.697105    27A1     1.816662    17B2     1.821864  
      18B2     1.979895    28A1     2.070367    13B1     2.070809  
      19B2     2.071474     7A2     2.081408    29A1     2.099760  
      14B1     2.100391    30A1     2.156131    20B2     2.181062  
       8A2     2.201912    31A1     2.207746    15B1     2.258222  
      32A1     2.308831     9A2     2.312260    21B2     2.319078  
      16B1     2.319136    17B1     2.442030    33A1     2.483333  
      22B2     2.484331    34A1     2.514907    35A1     2.703583  
      18B1     2.717621    23B2     2.721929    36A1     2.851912  
      24B2     2.863572    10A2     2.880667    25B2     3.693094  
      37A1     3.756058    11A2     4.013433    19B1     4.083057  
      38A1     4.174471    26B2     4.219075    20B1     4.260153  
      27B2     4.292593    21B1     4.295891    12A2     4.382334  
      39A1     4.427320    22B1     4.456922    40A1     4.468104  
      28B2     4.515182    41A1     4.799799    29B2     4.841468  
      30B2     5.141862    13A2     5.147480    31B2     5.251993  
      42A1     5.344403    23B1     5.518519    43A1     5.692189  
      44A1     6.200073    24B1     6.485605    14A2     6.486970  
      32B2     6.487749    45A1     6.493126    25B1     6.499284  
      33B2     6.521580    46A1     6.607752    34B2     6.609694  
      26B1     6.723232    47A1     6.954982    15A2     7.038058  
      48A1     7.041946    27B1     7.084898    35B2     7.097466  
      28B1     7.136731    49A1     7.173858    29B1     7.282918  
      16A2     7.307974    36B2     7.314181    17A2     7.353475  
      50A1     7.439914    51A1     7.546621    52A1     7.913202  
      37B2     7.917882    38B2     8.809073    53A1     8.940111  
      54A1    15.804595  

    Final Occupation by Irrep:
             A1    A2    B1    B2 
    DOCC [     5,    0,    1,    2 ]
    SOCC [     1,    0,    1,    0 ]

  @UHF Final Energy:  -150.87361972701086

   => Energetics <=

    Nuclear Repulsion Energy =             23.8260979162921984
    One-Electron Energy =                -255.7159004673028448
    Two-Electron Energy =                  81.0161828239997703
    Total Energy =                       -150.8736197270108619

  UHF NO Occupations:
  HONO-2 :    5 A1 1.9970493
  HONO-1 :    6 A1 1.0000000
  HONO-0 :    2 B1 1.0000000
  LUNO+0 :    7 A1 0.0029507
  LUNO+1 :    3 B2 0.0017951
  LUNO+2 :    8 A1 0.0000217
  LUNO+3 :    9 A1 0.0000024


Computation Completed


Properties will be evaluated at   0.000000,   0.000000,   0.000000 [a0]

Properties computed using the SCF density matrix

  Nuclear Dipole Moment: [e a0]
     X:     0.0000      Y:     0.0000      Z:     3.4821

  Electronic Dipole Moment: [e a0]
     X:     0.0000      Y:     0.0000      Z:    -2.6471

  Dipole Moment: [e a0]
     X:     0.0000      Y:     0.0000      Z:     0.8350     Total:     0.8350

  Dipole Moment: [D]
     X:     0.0000      Y:     0.0000      Z:     2.1223     Total:     2.1223


*** tstop() called on c5-13.compute.lan at Mon Mar  8 17:45:22 2021
Module time:
	user time   =      35.81 seconds =       0.60 minutes
	system time =       1.49 seconds =       0.02 minutes
	total time  =          5 seconds =       0.08 minutes
Total time:
	user time   =      35.81 seconds =       0.60 minutes
	system time =       1.49 seconds =       0.02 minutes
	total time  =          5 seconds =       0.08 minutes
 MINTS: Wrapper to libmints.
   by Justin Turney

   Calculation information:
      Number of threads:                12
      Number of atoms:                   4
      Number of AO shells:              46
      Number of SO shells:              37
      Number of primitives:             82
      Number of atomic orbitals:       160
      Number of basis functions:       138

      Number of irreps:                  4
      Integral cutoff                 0.00e+00
      Number of functions per irrep: [  54   17   29   38 ]

 OEINTS: Overlap, kinetic, potential, dipole, and quadrupole integrals
         stored in file 35.

      Computing two-electron integrals...done
      Computed 11523611 non-zero two-electron integrals.
        Stored in file 33.


*** tstart() called on c5-13.compute.lan
*** at Mon Mar  8 17:45:24 2021


	Wfn Parameters:
	--------------------
	Wavefunction         = CCSD_T
	Number of irreps     = 4
	Number of MOs        = 138
	Number of active MOs = 136
	AO-Basis             = NONE
	Semicanonical        = false
	Reference            = UHF
	Print Level          = 1

	IRREP	# MOs	# FZDC	# DOCC	# SOCC	# VIRT	# FZVR
	-----	-----	------	------	------	------	------
	 A1	   54	    2	    3	    1	    48	    0
	 A2	   17	    0	    0	    0	    17	    0
	 B1	   29	    0	    1	    1	    27	    0
	 B2	   38	    0	    2	    0	    36	    0
	Transforming integrals...
	IWL integrals will be deleted.
	(OO|OO)...
	Presorting SO-basis two-electron integrals.
	Sorting File: SO Ints (nn|nn) nbuckets = 1
	Transforming the one-electron integrals and constructing Fock matrices
	Starting AA/AB first half-transformation.
	Sorting AA/AB half-transformed integrals.
	Starting BB first half-transformation.
	Sorting BB half-transformed integrals.
	First half integral transformation complete.
	Starting AA second half-transformation.
	Starting AB second half-transformation.
	Starting BB second half-transformation.
	Two-electron integral transformation complete.
	(OO|OV)...
	Starting AA second half-transformation.
	Starting AB second half-transformation.
	Starting BB second half-transformation.
	Two-electron integral transformation complete.
	(OO|VV)...
	Starting AA second half-transformation.
	Starting AB second half-transformation.
	Starting BB second half-transformation.
	Two-electron integral transformation complete.
	(OV|OO)...
	Starting AA/AB first half-transformation.
	Sorting AA/AB half-transformed integrals.
	Starting BB first half-transformation.
	Sorting BB half-transformed integrals.
	First half integral transformation complete.
	Starting AA second half-transformation.
	Starting AB second half-transformation.
	Starting BB second half-transformation.
	Two-electron integral transformation complete.
	(OV|OV)...
	Starting AA second half-transformation.
	Starting AB second half-transformation.
	Starting BB second half-transformation.
	Two-electron integral transformation complete.
	(OV|VV)...
	Starting AA second half-transformation.
	Starting AB second half-transformation.
	Starting BB second half-transformation.
	Two-electron integral transformation complete.
	(VV|OO)...
	Starting AA/AB first half-transformation.
	Sorting AA/AB half-transformed integrals.
	Starting BB first half-transformation.
	Sorting BB half-transformed integrals.
	First half integral transformation complete.
	Starting AA second half-transformation.
	Starting AB second half-transformation.
	Starting BB second half-transformation.
	Two-electron integral transformation complete.
	(VV|OV)...
	Starting AA second half-transformation.
	Starting AB second half-transformation.
	Starting BB second half-transformation.
	Two-electron integral transformation complete.
	(VV|VV)...
	Starting AA second half-transformation.
	Starting AB second half-transformation.
	Starting BB second half-transformation.
	Two-electron integral transformation complete.
	Frozen core energy     =   -126.36901421681061

	Size of irrep 0 of <AB|CD> integrals:      5.040 (MW) /     40.320 (MB)
	Size of irrep 1 of <AB|CD> integrals:      3.197 (MW) /     25.576 (MB)
	Size of irrep 2 of <AB|CD> integrals:      3.640 (MW) /     29.124 (MB)
	Size of irrep 3 of <AB|CD> integrals:      4.783 (MW) /     38.264 (MB)
	Total:                                    16.660 (MW) /    133.283 (MB)

	Size of irrep 0 of <ab|cd> integrals:      5.382 (MW) /     43.059 (MB)
	Size of irrep 1 of <ab|cd> integrals:      3.389 (MW) /     27.114 (MB)
	Size of irrep 2 of <ab|cd> integrals:      3.936 (MW) /     31.490 (MB)
	Size of irrep 3 of <ab|cd> integrals:      5.018 (MW) /     40.141 (MB)
	Total:                                    17.726 (MW) /    141.804 (MB)

	Size of irrep 0 of <Ab|Cd> integrals:     22.024 (MW) /    176.194 (MB)
	Size of irrep 1 of <Ab|Cd> integrals:     13.170 (MW) /    105.357 (MB)
	Size of irrep 2 of <Ab|Cd> integrals:     15.140 (MW) /    121.119 (MB)
	Size of irrep 3 of <Ab|Cd> integrals:     19.598 (MW) /    156.787 (MB)
	Total:                                    69.932 (MW) /    559.457 (MB)

	Size of irrep 0 of <IA|BC> integrals:      1.469 (MW) /     11.748 (MB)
	Size of irrep 1 of <IA|BC> integrals:      0.694 (MW) /      5.550 (MB)
	Size of irrep 2 of <IA|BC> integrals:      0.908 (MW) /      7.266 (MB)
	Size of irrep 3 of <IA|BC> integrals:      1.198 (MW) /      9.588 (MB)
	Total:                                     4.269 (MW) /     34.152 (MB)

	Size of irrep 0 of <ia|bc> integrals:      1.178 (MW) /      9.426 (MB)
	Size of irrep 1 of <ia|bc> integrals:      0.527 (MW) /      4.212 (MB)
	Size of irrep 2 of <ia|bc> integrals:      0.663 (MW) /      5.301 (MB)
	Size of irrep 3 of <ia|bc> integrals:      0.999 (MW) /      7.992 (MB)
	Total:                                     3.366 (MW) /     26.931 (MB)

	Size of irrep 0 of <Ia|Bc> integrals:      1.521 (MW) /     12.164 (MB)
	Size of irrep 1 of <Ia|Bc> integrals:      0.711 (MW) /      5.690 (MB)
	Size of irrep 2 of <Ia|Bc> integrals:      0.949 (MW) /      7.595 (MB)
	Size of irrep 3 of <Ia|Bc> integrals:      1.222 (MW) /      9.775 (MB)
	Total:                                     4.403 (MW) /     35.225 (MB)

	Size of irrep 0 of <iA|bC> integrals:      1.140 (MW) /      9.123 (MB)
	Size of irrep 1 of <iA|bC> integrals:      0.512 (MW) /      4.094 (MB)
	Size of irrep 2 of <iA|bC> integrals:      0.634 (MW) /      5.074 (MB)
	Size of irrep 3 of <iA|bC> integrals:      0.978 (MW) /      7.827 (MB)
	Total:                                     3.265 (MW) /     26.118 (MB)

	Size of irrep 0 of tIjAb amplitudes:       0.084 (MW) /      0.676 (MB)
	Size of irrep 1 of tIjAb amplitudes:       0.022 (MW) /      0.174 (MB)
	Size of irrep 2 of tIjAb amplitudes:       0.039 (MW) /      0.311 (MB)
	Size of irrep 3 of tIjAb amplitudes:       0.062 (MW) /      0.496 (MB)
	Total:                                     0.207 (MW) /      1.657 (MB)

	Nuclear Rep. energy          =     23.82609791629220
	SCF energy                   =   -150.87361972701086
	One-electron energy          =    -85.40948695137479
	Two-electron (AA) energy     =     10.36295362557416
	Two-electron (BB) energy     =      5.46687681821668
	Two-electron (AB) energy     =     21.24895308109071
	Two-electron energy          =     37.07878352488154
	Reference energy             =   -150.87361972701166

*** tstop() called on c5-13.compute.lan at Mon Mar  8 17:45:49 2021
Module time:
	user time   =      68.48 seconds =       1.14 minutes
	system time =      10.78 seconds =       0.18 minutes
	total time  =         25 seconds =       0.42 minutes
Total time:
	user time   =     108.70 seconds =       1.81 minutes
	system time =      12.72 seconds =       0.21 minutes
	total time  =         32 seconds =       0.53 minutes
            **************************
            *                        *
            *        CCENERGY        *
            *                        *
            **************************

    Nuclear Rep. energy (wfn)     =   23.826097916292198
    SCF energy          (wfn)     = -150.873619727010862
    Reference energy    (file100) = -150.873619727011658

    Input parameters:
    -----------------
    Wave function   =     CCSD_T
    Reference wfn   =     UHF
    Brueckner       =     No
    Memory (Mbytes) =     4000.0
    Maxiter         =     50
    R_Convergence   =     1.0e-10
    E_Convergence   =     1.0e-10
    Restart         =     Yes
    DIIS            =     Yes
    AO Basis        =     NONE
    ABCD            =     NEW
    Cache Level     =     2
    Cache Type      =     LRU
    Print Level     =     1
    Num. of threads =     12
    # Amps to Print =     10
    Print MP2 Amps? =     No
    Analyze T2 Amps =     No
    Print Pair Ener =     No
    Local CC        =     No
    SCS-MP2         =     False
    SCSN-MP2        =     False
    SCS-CCSD        =     False

MP2 correlation energy -0.4161760633692793
                Solving CC Amplitude Equations
                ------------------------------
  Iter             Energy              RMS        T1Diag      D1Diag    New D1Diag    D2Diag
  ----     ---------------------    ---------   ----------  ----------  ----------   --------
     0        -0.416176063369279    0.000e+00    0.000000    0.000000    0.000000    0.000000
     1        -0.426984546190396    5.691e-02    0.010566    0.000000    0.000000    0.000000
     2        -0.435070027394593    1.700e-02    0.011062    0.000000    0.000000    0.000000
     3        -0.437216746643743    8.760e-03    0.012980    0.000000    0.000000    0.000000
     4        -0.437090390358895    2.679e-03    0.013389    0.000000    0.000000    0.000000
     5        -0.437080919670437    1.394e-03    0.013581    0.000000    0.000000    0.000000
     6        -0.437110035312632    5.291e-04    0.013608    0.000000    0.000000    0.000000
     7        -0.437113010385567    2.144e-04    0.013602    0.000000    0.000000    0.000000
     8        -0.437113940599863    6.669e-05    0.013597    0.000000    0.000000    0.000000
     9        -0.437114627011010    2.382e-05    0.013596    0.000000    0.000000    0.000000
    10        -0.437113727686566    9.211e-06    0.013596    0.000000    0.000000    0.000000
    11        -0.437113892454467    3.995e-06    0.013596    0.000000    0.000000    0.000000
    12        -0.437113852818800    1.443e-06    0.013596    0.000000    0.000000    0.000000
    13        -0.437113860676551    7.293e-07    0.013596    0.000000    0.000000    0.000000
    14        -0.437113883229308    3.040e-07    0.013596    0.000000    0.000000    0.000000
    15        -0.437113884965825    1.108e-07    0.013596    0.000000    0.000000    0.000000
    16        -0.437113885540651    4.959e-08    0.013596    0.000000    0.000000    0.000000
    17        -0.437113886119948    1.909e-08    0.013596    0.000000    0.000000    0.000000
    18        -0.437113885979050    9.899e-09    0.013596    0.000000    0.000000    0.000000
    19        -0.437113885772282    3.908e-09    0.013596    0.000000    0.000000    0.000000
    20        -0.437113885761975    2.112e-09    0.013596    0.000000    0.000000    0.000000
    21        -0.437113885739013    8.068e-10    0.013596    0.000000    0.000000    0.000000
    22        -0.437113885737493    3.249e-10    0.013596    0.000000    0.000000    0.000000
    23        -0.437113885736553    1.687e-10    0.013596    0.000000    0.000000    0.000000
    24        -0.437113885736391    6.917e-11    0.013596    0.000000    0.000000    0.000000

    Iterations converged.


    Largest TIA Amplitudes:
              5  65        -0.0133107699
              5  67        -0.0111584715
              7  94         0.0103931940
              5  66        -0.0096764055
              4  65        -0.0074570972
              3   1         0.0074055425
              2   3         0.0072150091
              4  66         0.0071689123
              3   5        -0.0055706313
              3   6         0.0054126972

    Largest Tia Amplitudes:
              3  67        -0.0147909008
              2   2         0.0134420068
              3  69        -0.0107738296
              5  96         0.0079696088
              3  66        -0.0076646200
              2   1        -0.0068357296
              2   7         0.0056292175
              2   6        -0.0055461255
              1  25        -0.0054331602
              4 109         0.0053777582

    Largest TIJAB Amplitudes:
      7   4 100  71         0.0142701076
      7   4  55  23        -0.0135898030
      7   2 100  12        -0.0121360192
      4   2  71  12         0.0110189770
      6   5  50   9        -0.0086580242
      7   4  49  23         0.0082530173
      6   5  97  72        -0.0080740634
      7   4  94  71         0.0078628950
      7   4  55   8        -0.0076190205
      7   4 100  82        -0.0073308221

    Largest Tijab Amplitudes:
      5   1  66  56         0.0086748696
      5   1  66  50        -0.0085736735
      5   1  68  56         0.0081621499
      4   3  99  67        -0.0076331790
      5   1  68  50        -0.0074596262
      4   3  99  73        -0.0073153143
      4   2  99   2         0.0071667505
      4   2  99  12         0.0068609102
      4   2 100   9        -0.0067247615
      4   3  51  10        -0.0065713217

    Largest TIjAb Amplitudes:
      7   5 100 103        -0.0219378101
      6   4  97  99        -0.0217172858
      7   5 100 102         0.0187736064
      7   1  55  66        -0.0180633968
      7   5 100  96        -0.0170890913
      7   1  55  68        -0.0168474272
      4   1  23  66        -0.0167346164
      5   3  72  73        -0.0162496398
      4   1  23  68        -0.0155677067
      4   5  71 103         0.0145698683

    SCF energy       (wfn)                    = -150.873619727010862
    Reference energy (file100)                = -150.873619727011658

    Opposite-spin MP2 correlation energy      =   -0.314357657095637
    Same-spin MP2 correlation energy          =   -0.101818406273643
    MP2 correlation energy                    =   -0.416176063369279
      * MP2 total energy                      = -151.289795790380936

    Opposite-spin CCSD correlation energy     =   -0.342012718476535
    Same-spin CCSD correlation energy         =   -0.095101167259857
    CCSD correlation energy                   =   -0.437113885736391
      * CCSD total energy                     = -151.310733612748038

            **************************
            *                        *
            *        CCTRIPLES       *
            *                        *
            **************************


    Wave function   =    CCSD_T
    Reference wfn   =      UHF

    Nuclear Rep. energy (wfn)                =   23.826097916292198
    SCF energy          (wfn)                = -150.873619727010862
    Reference energy    (file100)            = -150.873619727011658
    CCSD energy         (file100)            =   -0.437113885736391
    Total CCSD energy   (file100)            = -151.310733612748038

    Number of ijk index combinations:
    Spin Case AAA:                                  56
    Spin Case BBB:                                  20
    Spin Case AAB:                                 168
    Spin Case ABB:                                 120
    AAA (T) energy                             =   -0.000395556434469
    BBB (T) energy                             =   -0.000201986592801
    AAB (T) energy                             =   -0.006704215511833
    ABB (T) energy                             =   -0.004979446440672
    (T) energy                                   =   -0.012281204979775
      * CCSD(T) total energy                     = -151.323014817727824

Stephenergy -151.32301481772782
    Psi4 stopped on: Monday, 08 March 2021 05:46PM
    Psi4 wall time for execution: 0:01:41.63

*** Psi4 exiting successfully. Buy a developer a beer!
