
    -----------------------------------------------------------------------
          Psi4: An Open-Source Ab Initio Electronic Structure Package
                               Psi4 1.3.2 release

                         Git: Rev {HEAD} ecbda83 


    R. M. Parrish, L. A. Burns, D. G. A. Smith, A. C. Simmonett,
    A. E. DePrince III, E. G. Hohenstein, U. Bozkaya, A. Yu. Sokolov,
    R. Di Remigio, R. M. Richard, J. F. Gonthier, A. M. James,
    H. R. McAlexander, A. Kumar, M. Saitow, X. Wang, B. P. Pritchard,
    P. Verma, H. F. Schaefer III, K. Patkowski, R. A. King, E. F. Valeev,
    F. A. Evangelista, J. M. Turney, T. D. Crawford, and C. D. Sherrill,
    J. Chem. Theory Comput. 13(7) pp 3185--3197 (2017).
    (doi: 10.1021/acs.jctc.7b00174)


                         Additional Contributions by
    P. Kraus, H. Kruse, M. H. Lechner, M. C. Schieber, R. A. Shaw,
    A. Alenaizan, R. Galvelis, Z. L. Glick, S. Lehtola, and J. P. Misiewicz

    -----------------------------------------------------------------------


    Psi4 started on: Monday, 08 March 2021 09:39AM

    Process ID: 76523
    Host:       c5-18.compute.lan
    PSIDATADIR: /apps/gb/PSI4/1.3.2/share/psi4
    Memory:     500.0 MiB
    Threads:    12
    
  ==> Input File <==

--------------------------------------------------------------------------
memory 4 GB

molecule  {
0 1
O    0.000000000000    0.000000000000   -0.071961263524
H    0.000000000000   -0.767863646632    0.571038736476
H   -0.000000000000    0.767863646632    0.571038736476
}
set {
basis aug-cc-pvtz
reference uhf
e_convergence 10
scf_type pk
freeze_core true
}

set ccenergy {
e_convergence 10
r_convergence 10
}

e = energy('ccsd(t)')

print_out('Stephenergy {}'.format(e))

--------------------------------------------------------------------------

  Memory set to   3.725 GiB by Python driver.

*** tstart() called on c5-18.compute.lan
*** at Mon Mar  8 09:39:48 2021

   => Loading Basis Set <=

    Name: AUG-CC-PVTZ
    Role: ORBITAL
    Keyword: BASIS
    atoms 1   entry O          line   327 file /apps/gb/PSI4/1.3.2/share/psi4/basis/aug-cc-pvtz.gbs 
    atoms 2-3 entry H          line    36 file /apps/gb/PSI4/1.3.2/share/psi4/basis/aug-cc-pvtz.gbs 


         ---------------------------------------------------------
                                   SCF
               by Justin Turney, Rob Parrish, Andy Simmonett
                          and Daniel G. A. Smith
                              UHF Reference
                       12 Threads,   3814 MiB Core
         ---------------------------------------------------------

  ==> Geometry <==

    Molecular point group: c2v
    Full point group: C2v

    Geometry (in Angstrom), charge = 0, multiplicity = 1:

       Center              X                  Y                   Z               Mass       
    ------------   -----------------  -----------------  -----------------  -----------------
         O           -0.000000000000     0.000000000000    -0.071961263524    15.994914619570
         H            0.000000000000    -0.767863646632     0.571038736476     1.007825032230
         H           -0.000000000000     0.767863646632     0.571038736476     1.007825032230

  Running in c2v symmetry.

  Rotational constants: A =     22.77744  B =     14.18447  C =      8.74105 [cm^-1]
  Rotational constants: A = 682850.32427  B = 425239.74444  C = 262050.08562 [MHz]
  Nuclear repulsion =    8.798473272173259

  Charge       = 0
  Multiplicity = 1
  Electrons    = 10
  Nalpha       = 5
  Nbeta        = 5

  ==> Algorithm <==

  SCF Algorithm Type is PK.
  DIIS enabled.
  MOM disabled.
  Fractional occupation disabled.
  Guess Type is SAD.
  Energy threshold   = 1.00e-10
  Density threshold  = 1.00e-08
  Integral threshold = 0.00e+00

  ==> Primary Basis <==

  Basis Set: AUG-CC-PVTZ
    Blend: AUG-CC-PVTZ
    Number of shells: 32
    Number of basis function: 92
    Number of Cartesian functions: 105
    Spherical Harmonics?: true
    Max angular momentum: 3

  ==> Pre-Iterations <==

   -------------------------------------------------------
    Irrep   Nso     Nmo     Nalpha   Nbeta   Ndocc  Nsocc
   -------------------------------------------------------
     A1        35      35       0       0       0       0
     A2        12      12       0       0       0       0
     B1        18      18       0       0       0       0
     B2        27      27       0       0       0       0
   -------------------------------------------------------
    Total      92      92       5       5       5       0
   -------------------------------------------------------

  ==> Integral Setup <==

  Using in-core PK algorithm.
   Calculation information:
      Number of atoms:                   3
      Number of AO shells:              32
      Number of primitives:             52
      Number of atomic orbitals:       105
      Number of basis functions:        92

      Integral cutoff                 1.00e-12
      Number of threads:                12

  Performing in-core PK
  Using 18305562 doubles for integral storage.
  We computed 240258 shell quartets total.
  Whereas there are 139656 unique shell quartets.
    72.04 percent of shell quartets recomputed by reordering.

  ==> DiskJK: Disk-Based J/K Matrices <==

    J tasked:                  Yes
    K tasked:                  Yes
    wK tasked:                  No
    Memory [MiB]:             2861
    Schwarz Cutoff:          1E-12

    OpenMP threads:             12

  Minimum eigenvalue in the overlap matrix is 4.3190216542E-04.
  Using Symmetric Orthogonalization.

  SCF Guess: Superposition of Atomic Densities via on-the-fly atomic UHF.

  ==> Iterations <==

                        Total Energy        Delta E     RMS |[F,P]|

   @UHF iter SAD:   -75.43033541572026   -7.54303e+01   0.00000e+00 
   @UHF iter   1:   -75.96671761213904   -5.36382e-01   9.46848e-03 DIIS
   @UHF iter   2:   -76.01791884026190   -5.12012e-02   6.80287e-03 DIIS
   @UHF iter   3:   -76.05327848176478   -3.53596e-02   4.64365e-04 DIIS
   @UHF iter   4:   -76.05372647944412   -4.47998e-04   1.21796e-04 DIIS
   @UHF iter   5:   -76.05376150875239   -3.50293e-05   2.89338e-05 DIIS
   @UHF iter   6:   -76.05376456080594   -3.05205e-06   6.20855e-06 DIIS
   @UHF iter   7:   -76.05376470912753   -1.48322e-07   1.01617e-06 DIIS
   @UHF iter   8:   -76.05376471248181   -3.35427e-09   1.78725e-07 DIIS
   @UHF iter   9:   -76.05376471256429   -8.24798e-11   4.45442e-08 DIIS
   @UHF iter  10:   -76.05376471257013   -5.84066e-12   7.28691e-09 DIIS
  Energy and wave function converged.


  ==> Post-Iterations <==

   @Spin Contamination Metric:  -2.309263891E-14
   @S^2 Expected:                0.000000000E+00
   @S^2 Observed:               -2.309263891E-14
   @S   Expected:                0.000000000E+00
   @S   Observed:                0.000000000E+00

    Orbital Energies [Eh]
    ---------------------

    Alpha Occupied:                                                       

       1A1   -20.576791     2A1    -1.334864     1B2    -0.686217  
       3A1    -0.584876     1B1    -0.508295  

    Alpha Virtual:                                                        

       4A1     0.028552     2B2     0.047781     5A1     0.134968  
       2B1     0.161303     6A1     0.174561     3B2     0.183994  
       4B2     0.221721     7A1     0.243693     1A2     0.266747  
       3B1     0.294057     8A1     0.306450     5B2     0.364808  
       9A1     0.428971     6B2     0.456890     7B2     0.594816  
      10A1     0.658953    11A1     0.702674     2A2     0.727025  
       4B1     0.732508    12A1     0.821644     5B1     0.846690  
      13A1     0.902137     8B2     0.903148     6B1     0.917577  
       3A2     0.919494     9B2     0.929738    14A1     0.949496  
      15A1     1.005641    10B2     1.030084     7B1     1.074301  
      11B2     1.097231     4A2     1.170127    16A1     1.174983  
      12B2     1.277207     5A2     1.493864    17A1     1.508973  
       8B1     1.549904    13B2     1.818334    18A1     1.830792  
      14B2     1.924463    19A1     2.083792     9B1     2.260197  
       6A2     2.305685    20A1     2.333343    21A1     2.414651  
      10B1     2.414768    15B2     2.443417    22A1     2.501561  
      16B2     2.697937    11B1     2.701881    23A1     2.748082  
      17B2     2.772174     7A2     2.862056    18B2     3.599742  
      24A1     3.647039     8A2     4.004256    12B1     4.036117  
      25A1     4.093006    19B2     4.206527    13B1     4.218194  
      26A1     4.348192     9A2     4.355825    14B1     4.379090  
      20B2     4.490695    27A1     4.682855    21B2     4.746784  
      10A2     5.029954    22B2     5.084841    28A1     5.166210  
      23B2     5.192265    15B1     5.411703    29A1     5.543713  
      30A1     6.170865    24B2     6.500558    16B1     6.695018  
      31A1     6.864671    17B1     7.063597    25B2     7.144184  
      11A2     7.217706    18B1     7.243154    12A2     7.344903  
      32A1     7.346850    33A1     7.416017    34A1     7.797964  
      26B2     7.843042    27B2     8.612079    35A1    14.534900  

    Beta Occupied:                                                        

       1A1   -20.576791     2A1    -1.334864     1B2    -0.686217  
       3A1    -0.584876     1B1    -0.508295  

    Beta Virtual:                                                         

       4A1     0.028552     2B2     0.047781     5A1     0.134968  
       2B1     0.161303     6A1     0.174561     3B2     0.183994  
       4B2     0.221721     7A1     0.243693     1A2     0.266747  
       3B1     0.294057     8A1     0.306450     5B2     0.364808  
       9A1     0.428971     6B2     0.456890     7B2     0.594816  
      10A1     0.658953    11A1     0.702674     2A2     0.727025  
       4B1     0.732508    12A1     0.821644     5B1     0.846690  
      13A1     0.902137     8B2     0.903148     6B1     0.917577  
       3A2     0.919494     9B2     0.929738    14A1     0.949496  
      15A1     1.005641    10B2     1.030084     7B1     1.074301  
      11B2     1.097231     4A2     1.170127    16A1     1.174983  
      12B2     1.277207     5A2     1.493864    17A1     1.508973  
       8B1     1.549904    13B2     1.818334    18A1     1.830792  
      14B2     1.924463    19A1     2.083792     9B1     2.260197  
       6A2     2.305685    20A1     2.333343    21A1     2.414651  
      10B1     2.414768    15B2     2.443417    22A1     2.501561  
      16B2     2.697937    11B1     2.701881    23A1     2.748082  
      17B2     2.772174     7A2     2.862056    18B2     3.599742  
      24A1     3.647039     8A2     4.004256    12B1     4.036117  
      25A1     4.093006    19B2     4.206527    13B1     4.218194  
      26A1     4.348192     9A2     4.355825    14B1     4.379090  
      20B2     4.490695    27A1     4.682855    21B2     4.746784  
      10A2     5.029954    22B2     5.084841    28A1     5.166210  
      23B2     5.192265    15B1     5.411703    29A1     5.543713  
      30A1     6.170865    24B2     6.500558    16B1     6.695018  
      31A1     6.864671    17B1     7.063597    25B2     7.144184  
      11A2     7.217706    18B1     7.243154    12A2     7.344903  
      32A1     7.346850    33A1     7.416017    34A1     7.797964  
      26B2     7.843042    27B2     8.612079    35A1    14.534900  

    Final Occupation by Irrep:
             A1    A2    B1    B2 
    DOCC [     3,    0,    1,    1 ]
    SOCC [     0,    0,    0,    0 ]

  @UHF Final Energy:   -76.05376471257013

   => Energetics <=

    Nuclear Repulsion Energy =              8.7984732721732595
    One-Electron Energy =                -122.3223910352615746
    Two-Electron Energy =                  37.4701530505181850
    Total Energy =                        -76.0537647125701426

  UHF NO Occupations:
  HONO-2 :    2 A1 2.0000000
  HONO-1 :    1 B1 2.0000000
  HONO-0 :    3 A1 2.0000000
  LUNO+0 :    4 A1 0.0000000
  LUNO+1 :    5 A1 0.0000000
  LUNO+2 :    6 A1 0.0000000
  LUNO+3 :    2 B2 0.0000000


Computation Completed


Properties will be evaluated at   0.000000,   0.000000,   0.000000 [a0]

Properties computed using the SCF density matrix

  Nuclear Dipole Moment: [e a0]
     X:     0.0000      Y:     0.0000      Z:     1.0703

  Electronic Dipole Moment: [e a0]
     X:     0.0000      Y:     0.0000      Z:    -0.2477

  Dipole Moment: [e a0]
     X:     0.0000      Y:     0.0000      Z:     0.8227     Total:     0.8227

  Dipole Moment: [D]
     X:     0.0000      Y:     0.0000      Z:     2.0910     Total:     2.0910


*** tstop() called on c5-18.compute.lan at Mon Mar  8 09:39:50 2021
Module time:
	user time   =      15.13 seconds =       0.25 minutes
	system time =       0.42 seconds =       0.01 minutes
	total time  =          2 seconds =       0.03 minutes
Total time:
	user time   =      15.13 seconds =       0.25 minutes
	system time =       0.42 seconds =       0.01 minutes
	total time  =          2 seconds =       0.03 minutes
 MINTS: Wrapper to libmints.
   by Justin Turney

   Calculation information:
      Number of threads:                12
      Number of atoms:                   3
      Number of AO shells:              32
      Number of SO shells:              23
      Number of primitives:             52
      Number of atomic orbitals:       105
      Number of basis functions:        92

      Number of irreps:                  4
      Integral cutoff                 0.00e+00
      Number of functions per irrep: [  35   12   18   27 ]

 OEINTS: Overlap, kinetic, potential, dipole, and quadrupole integrals
         stored in file 35.

      Computing two-electron integrals...done
      Computed 2218118 non-zero two-electron integrals.
        Stored in file 33.


*** tstart() called on c5-18.compute.lan
*** at Mon Mar  8 09:39:51 2021


	Wfn Parameters:
	--------------------
	Wavefunction         = CCSD_T
	Number of irreps     = 4
	Number of MOs        = 92
	Number of active MOs = 91
	AO-Basis             = NONE
	Semicanonical        = false
	Reference            = UHF
	Print Level          = 1

	IRREP	# MOs	# FZDC	# DOCC	# SOCC	# VIRT	# FZVR
	-----	-----	------	------	------	------	------
	 A1	   35	    1	    2	    0	    32	    0
	 A2	   12	    0	    0	    0	    12	    0
	 B1	   18	    0	    1	    0	    17	    0
	 B2	   27	    0	    1	    0	    26	    0
	Transforming integrals...
	IWL integrals will be deleted.
	(OO|OO)...
	Presorting SO-basis two-electron integrals.
	Sorting File: SO Ints (nn|nn) nbuckets = 1
	Transforming the one-electron integrals and constructing Fock matrices
	Starting AA/AB first half-transformation.
	Sorting AA/AB half-transformed integrals.
	Starting BB first half-transformation.
	Sorting BB half-transformed integrals.
	First half integral transformation complete.
	Starting AA second half-transformation.
	Starting AB second half-transformation.
	Starting BB second half-transformation.
	Two-electron integral transformation complete.
	(OO|OV)...
	Starting AA second half-transformation.
	Starting AB second half-transformation.
	Starting BB second half-transformation.
	Two-electron integral transformation complete.
	(OO|VV)...
	Starting AA second half-transformation.
	Starting AB second half-transformation.
	Starting BB second half-transformation.
	Two-electron integral transformation complete.
	(OV|OO)...
	Starting AA/AB first half-transformation.
	Sorting AA/AB half-transformed integrals.
	Starting BB first half-transformation.
	Sorting BB half-transformed integrals.
	First half integral transformation complete.
	Starting AA second half-transformation.
	Starting AB second half-transformation.
	Starting BB second half-transformation.
	Two-electron integral transformation complete.
	(OV|OV)...
	Starting AA second half-transformation.
	Starting AB second half-transformation.
	Starting BB second half-transformation.
	Two-electron integral transformation complete.
	(OV|VV)...
	Starting AA second half-transformation.
	Starting AB second half-transformation.
	Starting BB second half-transformation.
	Two-electron integral transformation complete.
	(VV|OO)...
	Starting AA/AB first half-transformation.
	Sorting AA/AB half-transformed integrals.
	Starting BB first half-transformation.
	Sorting BB half-transformed integrals.
	First half integral transformation complete.
	Starting AA second half-transformation.
	Starting AB second half-transformation.
	Starting BB second half-transformation.
	Two-electron integral transformation complete.
	(VV|OV)...
	Starting AA second half-transformation.
	Starting AB second half-transformation.
	Starting BB second half-transformation.
	Two-electron integral transformation complete.
	(VV|VV)...
	Starting AA second half-transformation.
	Starting AB second half-transformation.
	Starting BB second half-transformation.
	Two-electron integral transformation complete.
	Frozen core energy     =    -61.21903408179649

	Size of irrep 0 of <AB|CD> integrals:      1.047 (MW) /      8.372 (MB)
	Size of irrep 1 of <AB|CD> integrals:      0.682 (MW) /      5.458 (MB)
	Size of irrep 2 of <AB|CD> integrals:      0.733 (MW) /      5.862 (MB)
	Size of irrep 3 of <AB|CD> integrals:      1.073 (MW) /      8.586 (MB)
	Total:                                     3.535 (MW) /     28.279 (MB)

	Size of irrep 0 of <ab|cd> integrals:      1.047 (MW) /      8.372 (MB)
	Size of irrep 1 of <ab|cd> integrals:      0.682 (MW) /      5.458 (MB)
	Size of irrep 2 of <ab|cd> integrals:      0.733 (MW) /      5.862 (MB)
	Size of irrep 3 of <ab|cd> integrals:      1.073 (MW) /      8.586 (MB)
	Total:                                     3.535 (MW) /     28.279 (MB)

	Size of irrep 0 of <Ab|Cd> integrals:      4.550 (MW) /     36.398 (MB)
	Size of irrep 1 of <Ab|Cd> integrals:      2.729 (MW) /     21.833 (MB)
	Size of irrep 2 of <Ab|Cd> integrals:      2.931 (MW) /     23.448 (MB)
	Size of irrep 3 of <Ab|Cd> integrals:      4.293 (MW) /     34.345 (MB)
	Total:                                    14.503 (MW) /    116.023 (MB)

	Size of irrep 0 of <IA|BC> integrals:      0.228 (MW) /      1.826 (MB)
	Size of irrep 1 of <IA|BC> integrals:      0.111 (MW) /      0.885 (MB)
	Size of irrep 2 of <IA|BC> integrals:      0.134 (MW) /      1.068 (MB)
	Size of irrep 3 of <IA|BC> integrals:      0.199 (MW) /      1.591 (MB)
	Total:                                     0.671 (MW) /      5.371 (MB)

	Size of irrep 0 of <ia|bc> integrals:      0.228 (MW) /      1.826 (MB)
	Size of irrep 1 of <ia|bc> integrals:      0.111 (MW) /      0.885 (MB)
	Size of irrep 2 of <ia|bc> integrals:      0.134 (MW) /      1.068 (MB)
	Size of irrep 3 of <ia|bc> integrals:      0.199 (MW) /      1.591 (MB)
	Total:                                     0.671 (MW) /      5.371 (MB)

	Size of irrep 0 of <Ia|Bc> integrals:      0.228 (MW) /      1.826 (MB)
	Size of irrep 1 of <Ia|Bc> integrals:      0.111 (MW) /      0.885 (MB)
	Size of irrep 2 of <Ia|Bc> integrals:      0.134 (MW) /      1.068 (MB)
	Size of irrep 3 of <Ia|Bc> integrals:      0.199 (MW) /      1.591 (MB)
	Total:                                     0.671 (MW) /      5.371 (MB)

	Size of irrep 0 of <iA|bC> integrals:      0.228 (MW) /      1.826 (MB)
	Size of irrep 1 of <iA|bC> integrals:      0.111 (MW) /      0.885 (MB)
	Size of irrep 2 of <iA|bC> integrals:      0.134 (MW) /      1.068 (MB)
	Size of irrep 3 of <iA|bC> integrals:      0.199 (MW) /      1.591 (MB)
	Total:                                     0.671 (MW) /      5.371 (MB)

	Size of irrep 0 of tIjAb amplitudes:       0.013 (MW) /      0.102 (MB)
	Size of irrep 1 of tIjAb amplitudes:       0.003 (MW) /      0.026 (MB)
	Size of irrep 2 of tIjAb amplitudes:       0.007 (MW) /      0.055 (MB)
	Size of irrep 3 of tIjAb amplitudes:       0.008 (MW) /      0.066 (MB)
	Total:                                     0.031 (MW) /      0.250 (MB)

	Nuclear Rep. energy          =      8.79847327217326
	SCF energy                   =    -76.05376471257013
	One-electron energy          =    -41.03790466784042
	Two-electron (AA) energy     =      3.38341301304039
	Two-electron (BB) energy     =      3.38341301304042
	Two-electron (AB) energy     =     10.63787473881240
	Two-electron energy          =     17.40470076489321
	Reference energy             =    -76.05376471257043

*** tstop() called on c5-18.compute.lan at Mon Mar  8 09:39:57 2021
Module time:
	user time   =       2.93 seconds =       0.05 minutes
	system time =       3.00 seconds =       0.05 minutes
	total time  =          6 seconds =       0.10 minutes
Total time:
	user time   =      21.58 seconds =       0.36 minutes
	system time =       3.56 seconds =       0.06 minutes
	total time  =          9 seconds =       0.15 minutes
            **************************
            *                        *
            *        CCENERGY        *
            *                        *
            **************************

    Nuclear Rep. energy (wfn)     =    8.798473272173259
    SCF energy          (wfn)     =  -76.053764712570128
    Reference energy    (file100) =  -76.053764712570427

    Input parameters:
    -----------------
    Wave function   =     CCSD_T
    Reference wfn   =     UHF
    Brueckner       =     No
    Memory (Mbytes) =     4000.0
    Maxiter         =     50
    R_Convergence   =     1.0e-10
    E_Convergence   =     1.0e-10
    Restart         =     Yes
    DIIS            =     Yes
    AO Basis        =     NONE
    ABCD            =     NEW
    Cache Level     =     2
    Cache Type      =     LRU
    Print Level     =     1
    Num. of threads =     12
    # Amps to Print =     10
    Print MP2 Amps? =     No
    Analyze T2 Amps =     No
    Print Pair Ener =     No
    Local CC        =     No
    SCS-MP2         =     False
    SCSN-MP2        =     False
    SCS-CCSD        =     False

MP2 correlation energy -0.2723674999120163
                Solving CC Amplitude Equations
                ------------------------------
  Iter             Energy              RMS        T1Diag      D1Diag    New D1Diag    D2Diag
  ----     ---------------------    ---------   ----------  ----------  ----------   --------
     0        -0.272367499912016    0.000e+00    0.000000    0.000000    0.000000    0.000000
     1        -0.269779587018094    5.102e-02    0.012920    0.000000    0.000000    0.000000
     2        -0.275349389231679    1.449e-02    0.012652    0.000000    0.000000    0.000000
     3        -0.276728488707845    6.861e-03    0.014721    0.000000    0.000000    0.000000
     4        -0.276616664638690    1.402e-03    0.015075    0.000000    0.000000    0.000000
     5        -0.276600825766808    5.186e-04    0.015223    0.000000    0.000000    0.000000
     6        -0.276601717057933    1.306e-04    0.015256    0.000000    0.000000    0.000000
     7        -0.276600273832283    4.555e-05    0.015263    0.000000    0.000000    0.000000
     8        -0.276600369427504    1.291e-05    0.015266    0.000000    0.000000    0.000000
     9        -0.276600412754695    4.065e-06    0.015266    0.000000    0.000000    0.000000
    10        -0.276600265464395    1.643e-06    0.015266    0.000000    0.000000    0.000000
    11        -0.276600291804650    5.741e-07    0.015266    0.000000    0.000000    0.000000
    12        -0.276600284087406    2.118e-07    0.015266    0.000000    0.000000    0.000000
    13        -0.276600286446053    6.167e-08    0.015266    0.000000    0.000000    0.000000
    14        -0.276600287916702    1.596e-08    0.015266    0.000000    0.000000    0.000000
    15        -0.276600288004703    4.894e-09    0.015266    0.000000    0.000000    0.000000
    16        -0.276600288035371    1.438e-09    0.015266    0.000000    0.000000    0.000000
    17        -0.276600288054905    4.819e-10    0.015266    0.000000    0.000000    0.000000
    18        -0.276600288054166    1.205e-10    0.015266    0.000000    0.000000    0.000000
    19        -0.276600288054755    3.772e-11    0.015266    0.000000    0.000000    0.000000

    Iterations converged.


    Largest TIA Amplitudes:
              2  44        -0.0165947759
              2  45        -0.0139898413
              1   1         0.0086513837
              1   4        -0.0076657875
              3  73         0.0058024366
              2  54         0.0043028079
              3  69         0.0042262567
              1  15        -0.0037495269
              2  46         0.0036965572
              3  80         0.0036708183

    Largest Tia Amplitudes:
              2  44        -0.0165947759
              2  45        -0.0139898413
              1   1         0.0086513837
              1   4        -0.0076657875
              3  73         0.0058024366
              2  54         0.0043028079
              3  69         0.0042262567
              1  15        -0.0037495269
              2  46         0.0036965572
              3  80         0.0036708183

    Largest TIJAB Amplitudes:
      2   1  46   7        -0.0095648465
      3   1  66   6        -0.0091182811
      3   2  65  49        -0.0084056518
      3   2  33   6        -0.0082429767
      2   1  49   9         0.0080400680
      3   1  65   9         0.0078946543
      3   2  65  44        -0.0078701054
      3   2  65  45        -0.0074526258
      3   2  65  48        -0.0074253649
      3   1  66  13         0.0070623303

    Largest Tijab Amplitudes:
      2   1  46   7        -0.0095648465
      3   1  66   6        -0.0091182811
      3   2  65  49        -0.0084056518
      3   2  33   6        -0.0082429767
      2   1  49   9         0.0080400680
      3   1  65   9         0.0078946543
      3   2  65  44        -0.0078701054
      3   2  65  45        -0.0074526258
      3   2  65  48        -0.0074253649
      3   1  66  13         0.0070623303

    Largest TIjAb Amplitudes:
      3   3  65  65        -0.0253815140
      1   1   9   9        -0.0184414635
      2   2  49  49        -0.0171116092
      3   3  65  69        -0.0160831732
      3   3  69  65        -0.0160831732
      3   3  62  65        -0.0145873851
      3   3  65  62        -0.0145873851
      3   3  66  66        -0.0144545133
      2   2  48  48        -0.0143223361
      2   2  48  49        -0.0136905029

    SCF energy       (wfn)                    =  -76.053764712570128
    Reference energy (file100)                =  -76.053764712570427

    Opposite-spin MP2 correlation energy      =   -0.206293658265609
    Same-spin MP2 correlation energy          =   -0.066073841646407
    MP2 correlation energy                    =   -0.272367499912016
      * MP2 total energy                      =  -76.326132212482449

    Opposite-spin CCSD correlation energy     =   -0.218467805577133
    Same-spin CCSD correlation energy         =   -0.058132482477621
    CCSD correlation energy                   =   -0.276600288054755
      * CCSD total energy                     =  -76.330365000625179

            **************************
            *                        *
            *        CCTRIPLES       *
            *                        *
            **************************


    Wave function   =    CCSD_T
    Reference wfn   =      UHF

    Nuclear Rep. energy (wfn)                =    8.798473272173259
    SCF energy          (wfn)                =  -76.053764712570128
    Reference energy    (file100)            =  -76.053764712570427
    CCSD energy         (file100)            =   -0.276600288054755
    Total CCSD energy   (file100)            =  -76.330365000625179

    Number of ijk index combinations:
    Spin Case AAA:                                   4
    Spin Case BBB:                                   4
    Spin Case AAB:                                  24
    Spin Case ABB:                                  24
    AAA (T) energy                             =   -0.000199328377287
    BBB (T) energy                             =   -0.000199328377287
    AAB (T) energy                             =   -0.004360800597067
    ABB (T) energy                             =   -0.004360800597067
    (T) energy                                   =   -0.009120257948708
      * CCSD(T) total energy                     =  -76.339485258573887

Stephenergy -76.33948525857389
    Psi4 stopped on: Monday, 08 March 2021 09:40AM
    Psi4 wall time for execution: 0:00:18.95

*** Psi4 exiting successfully. Buy a developer a beer!
