
Host: ss-sub1.gacrc.uga.edu

Timers On : Mon Mar  8 15:44:11 2021
Timers Off: Mon Mar  8 17:55:34 2021

Wall Time:     7882.57 seconds

                                                       Time (seconds)
Module                                       User      System        Wall        Calls

--------------------------------------------------------------------------------------

**************************************************************************************
