
    -----------------------------------------------------------------------
          Psi4: An Open-Source Ab Initio Electronic Structure Package
                               Psi4 1.3.2 release

                         Git: Rev {HEAD} ecbda83 


    R. M. Parrish, L. A. Burns, D. G. A. Smith, A. C. Simmonett,
    A. E. DePrince III, E. G. Hohenstein, U. Bozkaya, A. Yu. Sokolov,
    R. Di Remigio, R. M. Richard, J. F. Gonthier, A. M. James,
    H. R. McAlexander, A. Kumar, M. Saitow, X. Wang, B. P. Pritchard,
    P. Verma, H. F. Schaefer III, K. Patkowski, R. A. King, E. F. Valeev,
    F. A. Evangelista, J. M. Turney, T. D. Crawford, and C. D. Sherrill,
    J. Chem. Theory Comput. 13(7) pp 3185--3197 (2017).
    (doi: 10.1021/acs.jctc.7b00174)


                         Additional Contributions by
    P. Kraus, H. Kruse, M. H. Lechner, M. C. Schieber, R. A. Shaw,
    A. Alenaizan, R. Galvelis, Z. L. Glick, S. Lehtola, and J. P. Misiewicz

    -----------------------------------------------------------------------


    Psi4 started on: Wednesday, 10 March 2021 09:16AM

    Process ID: 32172
    Host:       c1-9.compute.lan
    PSIDATADIR: /apps/gb/PSI4/1.3.2/share/psi4
    Memory:     500.0 MiB
    Threads:    12
    
  ==> Input File <==

--------------------------------------------------------------------------
memory 4 GB

molecule  {
0 3
O    0.000000000000    0.000000000000   -1.261860657648
H    0.000000000000   -0.762389765100   -0.671225537575
H   -0.000000000000    0.762389765100   -0.671225537575
O    0.000000000000    0.000000000000    1.346447279725
}
set {
basis aug-cc-pvtz
reference uhf
e_convergence 10
scf_type pk
freeze_core true
}

set ccenergy {
e_convergence 10
r_convergence 10
}

e = energy('ccsd(t)')

print_out('Stephenergy {}'.format(e))

--------------------------------------------------------------------------

  Memory set to   3.725 GiB by Python driver.

*** tstart() called on c1-9.compute.lan
*** at Wed Mar 10 09:16:24 2021

   => Loading Basis Set <=

    Name: AUG-CC-PVTZ
    Role: ORBITAL
    Keyword: BASIS
    atoms 1, 4 entry O          line   327 file /apps/gb/PSI4/1.3.2/share/psi4/basis/aug-cc-pvtz.gbs 
    atoms 2-3  entry H          line    36 file /apps/gb/PSI4/1.3.2/share/psi4/basis/aug-cc-pvtz.gbs 


         ---------------------------------------------------------
                                   SCF
               by Justin Turney, Rob Parrish, Andy Simmonett
                          and Daniel G. A. Smith
                              UHF Reference
                       12 Threads,   3814 MiB Core
         ---------------------------------------------------------

  ==> Geometry <==

    Molecular point group: c2v
    Full point group: C2v

    Geometry (in Angstrom), charge = 0, multiplicity = 3:

       Center              X                  Y                   Z               Mass       
    ------------   -----------------  -----------------  -----------------  -----------------
         O           -0.000000000000     0.000000000000    -1.261860657648    15.994914619570
         H            0.000000000000    -0.762389765100    -0.671225537575     1.007825032230
         H           -0.000000000000     0.762389765100    -0.671225537575     1.007825032230
         O           -0.000000000000     0.000000000000     1.346447279725    15.994914619570

  Running in c2v symmetry.

  Rotational constants: A =     14.38889  B =      0.30443  C =      0.29812 [cm^-1]
  Rotational constants: A = 431368.02280  B =   9126.61125  C =   8937.51693 [MHz]
  Nuclear repulsion =   26.036201031393269

  Charge       = 0
  Multiplicity = 3
  Electrons    = 18
  Nalpha       = 10
  Nbeta        = 8

  ==> Algorithm <==

  SCF Algorithm Type is PK.
  DIIS enabled.
  MOM disabled.
  Fractional occupation disabled.
  Guess Type is SAD.
  Energy threshold   = 1.00e-10
  Density threshold  = 1.00e-08
  Integral threshold = 0.00e+00

  ==> Primary Basis <==

  Basis Set: AUG-CC-PVTZ
    Blend: AUG-CC-PVTZ
    Number of shells: 46
    Number of basis function: 138
    Number of Cartesian functions: 160
    Spherical Harmonics?: true
    Max angular momentum: 3

  ==> Pre-Iterations <==

   -------------------------------------------------------
    Irrep   Nso     Nmo     Nalpha   Nbeta   Ndocc  Nsocc
   -------------------------------------------------------
     A1        54      54       0       0       0       0
     A2        17      17       0       0       0       0
     B1        29      29       0       0       0       0
     B2        38      38       0       0       0       0
   -------------------------------------------------------
    Total     138     138      10       8       8       2
   -------------------------------------------------------

  ==> Integral Setup <==

  Using in-core PK algorithm.
   Calculation information:
      Number of atoms:                   4
      Number of AO shells:              46
      Number of primitives:             82
      Number of atomic orbitals:       160
      Number of basis functions:       138

      Integral cutoff                 1.00e-12
      Number of threads:                12

  Performing in-core PK
  Using 91996872 doubles for integral storage.
  We computed 946053 shell quartets total.
  Whereas there are 584821 unique shell quartets.
    61.77 percent of shell quartets recomputed by reordering.

  ==> DiskJK: Disk-Based J/K Matrices <==

    J tasked:                  Yes
    K tasked:                  Yes
    wK tasked:                  No
    Memory [MiB]:             2861
    Schwarz Cutoff:          1E-12

    OpenMP threads:             12

  Minimum eigenvalue in the overlap matrix is 3.4208879596E-04.
  Using Symmetric Orthogonalization.

  SCF Guess: Superposition of Atomic Densities via on-the-fly atomic UHF.

  ==> Iterations <==

                        Total Energy        Delta E     RMS |[F,P]|

   @UHF iter SAD:  -149.44534238373214   -1.49445e+02   0.00000e+00 
   @UHF iter   1:  -150.75495201717166   -1.30961e+00   6.72597e-03 DIIS
   @UHF iter   2:  -150.83122627747852   -7.62743e-02   4.27483e-03 DIIS
   @UHF iter   3:  -150.86491982690643   -3.36935e-02   6.55712e-04 DIIS
   @UHF iter   4:  -150.86718673887478   -2.26691e-03   1.83593e-04 DIIS
   @UHF iter   5:  -150.86736866201798   -1.81923e-04   7.67401e-05 DIIS
   @UHF iter   6:  -150.86741019405568   -4.15320e-05   2.67828e-05 DIIS
   @UHF iter   7:  -150.86741579116926   -5.59711e-06   8.97393e-06 DIIS
   @UHF iter   8:  -150.86741647705429   -6.85885e-07   4.03028e-06 DIIS
   @UHF iter   9:  -150.86741664134425   -1.64290e-07   1.59414e-06 DIIS
   @UHF iter  10:  -150.86741667064476   -2.93005e-08   4.18458e-07 DIIS
   @UHF iter  11:  -150.86741667233159   -1.68683e-09   8.71038e-08 DIIS
   @UHF iter  12:  -150.86741667237735   -4.57590e-11   2.02053e-08 DIIS
   @UHF iter  13:  -150.86741667238041   -3.06954e-12   7.57296e-09 DIIS
  Energy and wave function converged.


  ==> Post-Iterations <==

   @Spin Contamination Metric:   9.831555686E-03
   @S^2 Expected:                2.000000000E+00
   @S^2 Observed:                2.009831556E+00
   @S   Expected:                1.000000000E+00
   @S   Observed:                1.000000000E+00

    Orbital Energies [Eh]
    ---------------------

    Alpha Occupied:                                                       

       1A1   -20.734889     2A1   -20.568189     3A1    -1.448277  
       4A1    -1.352939     5A1    -0.746308     1B1    -0.736466  
       1B2    -0.717440     2B2    -0.636370     6A1    -0.581320  
       2B1    -0.510992  

    Alpha Virtual:                                                        

       7A1     0.036740     3B2     0.050220     8A1     0.119815  
       3B1     0.130670     9A1     0.155579     4B2     0.166270  
       4B1     0.189675     5B2     0.190676    10A1     0.192359  
       1A2     0.263472    11A1     0.264058     6B2     0.273997  
      12A1     0.289378     5B1     0.335460     7B2     0.393663  
      13A1     0.403756    14A1     0.453059     8B2     0.475017  
       9B2     0.631926     2A2     0.644390     6B1     0.651046  
      15A1     0.659217    16A1     0.678409    17A1     0.709757  
       3A2     0.723641    18A1     0.735176    10B2     0.766192  
       7B1     0.789709     8B1     0.838174    19A1     0.882199  
      11B2     0.886839     9B1     0.921826    12B2     0.942673  
      20A1     0.978690     4A2     0.980468    21A1     1.024409  
      10B1     1.027296    13B2     1.056632    22A1     1.092435  
      14B2     1.123104    23A1     1.139678     5A2     1.207162  
      11B1     1.219243    24A1     1.238475    15B2     1.251040  
      16B2     1.437555     6A2     1.509793    25A1     1.563106  
      12B1     1.580948    17B2     1.759389    26A1     1.805664  
      27A1     1.848714    18B2     1.948096    13B1     2.004618  
      28A1     2.030086    14B1     2.037067     7A2     2.073917  
      19B2     2.075055    29A1     2.088217    30A1     2.167292  
      15B1     2.169569     8A2     2.178646    20B2     2.204542  
      31A1     2.204819     9A2     2.372330    32A1     2.377080  
      16B1     2.423177    21B2     2.437069    33A1     2.460280  
      17B1     2.510831    22B2     2.522019    34A1     2.538649  
      35A1     2.731523    18B1     2.732144    23B2     2.749880  
      10A2     2.881275    36A1     2.889810    24B2     2.937351  
      25B2     3.677159    37A1     3.812625    11A2     4.032175  
      19B1     4.074851    20B1     4.106966    38A1     4.207019  
      26B2     4.228847    21B1     4.307726    27B2     4.313418  
      12A2     4.379804    22B1     4.441270    39A1     4.451816  
      40A1     4.581359    28B2     4.650755    41A1     4.744471  
      29B2     4.891926    13A2     5.147790    30B2     5.150386  
      31B2     5.269333    42A1     5.357048    23B1     5.508622  
      43A1     5.688232    44A1     6.219952    24B1     6.390520  
      32B2     6.398738    25B1     6.423024    14A2     6.442639  
      45A1     6.461982    33B2     6.529735    46A1     6.585778  
      34B2     6.699714    26B1     6.767559    27B1     6.879641  
      47A1     6.882118    15A2     6.894645    48A1     6.960468  
      49A1     6.981496    35B2     7.006115    28B1     7.164238  
      29B1     7.257161    16A2     7.303293    17A2     7.357938  
      36B2     7.368311    50A1     7.374635    51A1     7.581095  
      37B2     7.938257    52A1     7.976985    38B2     8.785676  
      53A1     9.746389    54A1    15.706457  

    Beta Occupied:                                                        

       1A1   -20.656034     2A1   -20.566809     3A1    -1.350002  
       4A1    -1.104641     1B2    -0.715681     5A1    -0.580807  
       2B2    -0.547010     1B1    -0.508988  

    Beta Virtual:                                                         

       6A1     0.037528     2B1     0.046491     3B2     0.050572  
       7A1     0.052425     8A1     0.141976     3B1     0.159947  
       4B2     0.168248     9A1     0.182306     5B2     0.192933  
      10A1     0.193950     4B1     0.226554     1A2     0.263755  
      11A1     0.267584     6B2     0.274311    12A1     0.297252  
       5B1     0.343503     7B2     0.395885    13A1     0.431713  
      14A1     0.457182     8B2     0.475142     9B2     0.631612  
       2A2     0.658651     6B1     0.670083    15A1     0.673776  
      16A1     0.702619    17A1     0.711795     3A2     0.723995  
      10B2     0.782193    18A1     0.791684     7B1     0.817871  
      19A1     0.891935    11B2     0.900898     8B1     0.918046  
       9B1     0.935066    12B2     0.946532     4A2     0.982428  
      20A1     0.984349    21A1     1.034022    10B1     1.057430  
      13B2     1.057529    22A1     1.112970    14B2     1.131927  
      23A1     1.204496     5A2     1.208316    11B1     1.241248  
      24A1     1.250209    15B2     1.251370    16B2     1.443667  
       6A2     1.510013    12B1     1.581758    25A1     1.583573  
      17B2     1.763652    26A1     1.814383    27A1     1.886855  
      18B2     1.951107    13B1     2.028095    28A1     2.088620  
      19B2     2.089679    14B1     2.103533    29A1     2.137328  
       7A2     2.141606     8A2     2.209997    30A1     2.230182  
      31A1     2.234841    15B1     2.253418    20B2     2.274392  
       9A2     2.380448    32A1     2.413193    16B1     2.452919  
      21B2     2.454898    33A1     2.478710    17B1     2.511742  
      22B2     2.529740    34A1     2.551099    18B1     2.733207  
      35A1     2.744449    23B2     2.753322    10A2     2.881653  
      36A1     2.897409    24B2     2.939078    25B2     3.677792  
      37A1     3.822940    11A2     4.031809    19B1     4.106754  
      20B1     4.227754    38A1     4.240377    26B2     4.246823  
      21B1     4.321725    27B2     4.338572    12A2     4.379474  
      22B1     4.445749    39A1     4.482002    28B2     4.653312  
      40A1     4.670322    41A1     4.746560    29B2     4.893484  
      13A2     5.148010    30B2     5.151662    31B2     5.270407  
      42A1     5.359523    23B1     5.509067    43A1     5.689866  
      44A1     6.225701    24B1     6.447689    32B2     6.456702  
      14A2     6.518740    25B1     6.529733    33B2     6.533385  
      45A1     6.537804    46A1     6.663925    34B2     6.763127  
      26B1     6.769526    47A1     6.957500    15A2     7.007398  
      48A1     7.015823    27B1     7.063270    35B2     7.115088  
      49A1     7.118805    28B1     7.167354    29B1     7.260367  
      16A2     7.304454    17A2     7.359044    36B2     7.369209  
      50A1     7.382926    51A1     7.587009    37B2     7.939726  
      52A1     7.980128    38B2     8.787585    53A1     9.818155  
      54A1    15.707416  

    Final Occupation by Irrep:
             A1    A2    B1    B2 
    DOCC [     5,    0,    1,    2 ]
    SOCC [     1,    0,    1,    0 ]

  @UHF Final Energy:  -150.86741667238041

   => Energetics <=

    Nuclear Repulsion Energy =             26.0362010313932686
    One-Electron Energy =                -259.7440711358430008
    Two-Electron Energy =                  82.8404534320693102
    Total Energy =                       -150.8674166723804433

  UHF NO Occupations:
  HONO-2 :    5 A1 1.9970622
  HONO-1 :    2 B1 1.0000000
  HONO-0 :    6 A1 1.0000000
  LUNO+0 :    7 A1 0.0029378
  LUNO+1 :    3 B2 0.0017485
  LUNO+2 :    8 A1 0.0002164
  LUNO+3 :    3 B1 0.0000124


Computation Completed


Properties will be evaluated at   0.000000,   0.000000,   0.000000 [a0]

Properties computed using the SCF density matrix

  Nuclear Dipole Moment: [e a0]
     X:    -0.0000      Y:     0.0000      Z:    -1.2581

  Electronic Dipole Moment: [e a0]
     X:     0.0000      Y:     0.0000      Z:     2.0757

  Dipole Moment: [e a0]
     X:    -0.0000      Y:     0.0000      Z:     0.8176     Total:     0.8176

  Dipole Moment: [D]
     X:    -0.0000      Y:     0.0000      Z:     2.0781     Total:     2.0781


*** tstop() called on c1-9.compute.lan at Wed Mar 10 09:16:31 2021
Module time:
	user time   =      55.16 seconds =       0.92 minutes
	system time =       2.98 seconds =       0.05 minutes
	total time  =          7 seconds =       0.12 minutes
Total time:
	user time   =      55.16 seconds =       0.92 minutes
	system time =       2.98 seconds =       0.05 minutes
	total time  =          7 seconds =       0.12 minutes
 MINTS: Wrapper to libmints.
   by Justin Turney

   Calculation information:
      Number of threads:                12
      Number of atoms:                   4
      Number of AO shells:              46
      Number of SO shells:              37
      Number of primitives:             82
      Number of atomic orbitals:       160
      Number of basis functions:       138

      Number of irreps:                  4
      Integral cutoff                 0.00e+00
      Number of functions per irrep: [  54   17   29   38 ]

 OEINTS: Overlap, kinetic, potential, dipole, and quadrupole integrals
         stored in file 35.

      Computing two-electron integrals...done
      Computed 11520501 non-zero two-electron integrals.
        Stored in file 33.


*** tstart() called on c1-9.compute.lan
*** at Wed Mar 10 09:16:33 2021


	Wfn Parameters:
	--------------------
	Wavefunction         = CCSD_T
	Number of irreps     = 4
	Number of MOs        = 138
	Number of active MOs = 136
	AO-Basis             = NONE
	Semicanonical        = false
	Reference            = UHF
	Print Level          = 1

	IRREP	# MOs	# FZDC	# DOCC	# SOCC	# VIRT	# FZVR
	-----	-----	------	------	------	------	------
	 A1	   54	    2	    3	    1	    48	    0
	 A2	   17	    0	    0	    0	    17	    0
	 B1	   29	    0	    1	    1	    27	    0
	 B2	   38	    0	    2	    0	    36	    0
	Transforming integrals...
	IWL integrals will be deleted.
	(OO|OO)...
	Presorting SO-basis two-electron integrals.
	Sorting File: SO Ints (nn|nn) nbuckets = 1
	Transforming the one-electron integrals and constructing Fock matrices
	Starting AA/AB first half-transformation.
	Sorting AA/AB half-transformed integrals.
	Starting BB first half-transformation.
	Sorting BB half-transformed integrals.
	First half integral transformation complete.
	Starting AA second half-transformation.
	Starting AB second half-transformation.
	Starting BB second half-transformation.
	Two-electron integral transformation complete.
	(OO|OV)...
	Starting AA second half-transformation.
	Starting AB second half-transformation.
	Starting BB second half-transformation.
	Two-electron integral transformation complete.
	(OO|VV)...
	Starting AA second half-transformation.
	Starting AB second half-transformation.
	Starting BB second half-transformation.
	Two-electron integral transformation complete.
	(OV|OO)...
	Starting AA/AB first half-transformation.
	Sorting AA/AB half-transformed integrals.
	Starting BB first half-transformation.
	Sorting BB half-transformed integrals.
	First half integral transformation complete.
	Starting AA second half-transformation.
	Starting AB second half-transformation.
	Starting BB second half-transformation.
	Two-electron integral transformation complete.
	(OV|OV)...
	Starting AA second half-transformation.
	Starting AB second half-transformation.
	Starting BB second half-transformation.
	Two-electron integral transformation complete.
	(OV|VV)...
	Starting AA second half-transformation.
	Starting AB second half-transformation.
	Starting BB second half-transformation.
	Two-electron integral transformation complete.
	(VV|OO)...
	Starting AA/AB first half-transformation.
	Sorting AA/AB half-transformed integrals.
	Starting BB first half-transformation.
	Sorting BB half-transformed integrals.
	First half integral transformation complete.
	Starting AA second half-transformation.
	Starting AB second half-transformation.
	Starting BB second half-transformation.
	Two-electron integral transformation complete.
	(VV|OV)...
	Starting AA second half-transformation.
	Starting AB second half-transformation.
	Starting BB second half-transformation.
	Two-electron integral transformation complete.
	(VV|VV)...
	Starting AA second half-transformation.
	Starting AB second half-transformation.
	Starting BB second half-transformation.
	Two-electron integral transformation complete.
	Frozen core energy     =   -127.06792071135170

	Size of irrep 0 of <AB|CD> integrals:      5.040 (MW) /     40.320 (MB)
	Size of irrep 1 of <AB|CD> integrals:      3.197 (MW) /     25.576 (MB)
	Size of irrep 2 of <AB|CD> integrals:      3.640 (MW) /     29.124 (MB)
	Size of irrep 3 of <AB|CD> integrals:      4.783 (MW) /     38.264 (MB)
	Total:                                    16.660 (MW) /    133.283 (MB)

	Size of irrep 0 of <ab|cd> integrals:      5.382 (MW) /     43.059 (MB)
	Size of irrep 1 of <ab|cd> integrals:      3.389 (MW) /     27.114 (MB)
	Size of irrep 2 of <ab|cd> integrals:      3.936 (MW) /     31.490 (MB)
	Size of irrep 3 of <ab|cd> integrals:      5.018 (MW) /     40.141 (MB)
	Total:                                    17.726 (MW) /    141.804 (MB)

	Size of irrep 0 of <Ab|Cd> integrals:     22.024 (MW) /    176.194 (MB)
	Size of irrep 1 of <Ab|Cd> integrals:     13.170 (MW) /    105.357 (MB)
	Size of irrep 2 of <Ab|Cd> integrals:     15.140 (MW) /    121.119 (MB)
	Size of irrep 3 of <Ab|Cd> integrals:     19.598 (MW) /    156.787 (MB)
	Total:                                    69.932 (MW) /    559.457 (MB)

	Size of irrep 0 of <IA|BC> integrals:      1.469 (MW) /     11.748 (MB)
	Size of irrep 1 of <IA|BC> integrals:      0.694 (MW) /      5.550 (MB)
	Size of irrep 2 of <IA|BC> integrals:      0.908 (MW) /      7.266 (MB)
	Size of irrep 3 of <IA|BC> integrals:      1.198 (MW) /      9.588 (MB)
	Total:                                     4.269 (MW) /     34.152 (MB)

	Size of irrep 0 of <ia|bc> integrals:      1.178 (MW) /      9.426 (MB)
	Size of irrep 1 of <ia|bc> integrals:      0.527 (MW) /      4.212 (MB)
	Size of irrep 2 of <ia|bc> integrals:      0.663 (MW) /      5.301 (MB)
	Size of irrep 3 of <ia|bc> integrals:      0.999 (MW) /      7.992 (MB)
	Total:                                     3.366 (MW) /     26.931 (MB)

	Size of irrep 0 of <Ia|Bc> integrals:      1.521 (MW) /     12.164 (MB)
	Size of irrep 1 of <Ia|Bc> integrals:      0.711 (MW) /      5.690 (MB)
	Size of irrep 2 of <Ia|Bc> integrals:      0.949 (MW) /      7.595 (MB)
	Size of irrep 3 of <Ia|Bc> integrals:      1.222 (MW) /      9.775 (MB)
	Total:                                     4.403 (MW) /     35.225 (MB)

	Size of irrep 0 of <iA|bC> integrals:      1.140 (MW) /      9.123 (MB)
	Size of irrep 1 of <iA|bC> integrals:      0.512 (MW) /      4.094 (MB)
	Size of irrep 2 of <iA|bC> integrals:      0.634 (MW) /      5.074 (MB)
	Size of irrep 3 of <iA|bC> integrals:      0.978 (MW) /      7.827 (MB)
	Total:                                     3.265 (MW) /     26.118 (MB)

	Size of irrep 0 of tIjAb amplitudes:       0.084 (MW) /      0.676 (MB)
	Size of irrep 1 of tIjAb amplitudes:       0.022 (MW) /      0.174 (MB)
	Size of irrep 2 of tIjAb amplitudes:       0.039 (MW) /      0.311 (MB)
	Size of irrep 3 of tIjAb amplitudes:       0.062 (MW) /      0.496 (MB)
	Total:                                     0.207 (MW) /      1.657 (MB)

	Nuclear Rep. energy          =     26.03620103139327
	SCF energy                   =   -150.86741667238041
	One-electron energy          =    -88.13415032937861
	Two-electron (AA) energy     =     10.77564593029065
	Two-electron (BB) energy     =      5.65934591306969
	Two-electron (AB) energy     =     21.86346149359441
	Two-electron energy          =     38.29845333695475
	Reference energy             =   -150.86741667238229

*** tstop() called on c1-9.compute.lan at Wed Mar 10 09:17:04 2021
Module time:
	user time   =     122.18 seconds =       2.04 minutes
	system time =      19.70 seconds =       0.33 minutes
	total time  =         31 seconds =       0.52 minutes
Total time:
	user time   =     182.79 seconds =       3.05 minutes
	system time =      23.24 seconds =       0.39 minutes
	total time  =         40 seconds =       0.67 minutes
            **************************
            *                        *
            *        CCENERGY        *
            *                        *
            **************************

    Nuclear Rep. energy (wfn)     =   26.036201031393269
    SCF energy          (wfn)     = -150.867416672380415
    Reference energy    (file100) = -150.867416672382291

    Input parameters:
    -----------------
    Wave function   =     CCSD_T
    Reference wfn   =     UHF
    Brueckner       =     No
    Memory (Mbytes) =     4000.0
    Maxiter         =     50
    R_Convergence   =     1.0e-10
    E_Convergence   =     1.0e-10
    Restart         =     Yes
    DIIS            =     Yes
    AO Basis        =     NONE
    ABCD            =     NEW
    Cache Level     =     2
    Cache Type      =     LRU
    Print Level     =     1
    Num. of threads =     12
    # Amps to Print =     10
    Print MP2 Amps? =     No
    Analyze T2 Amps =     No
    Print Pair Ener =     No
    Local CC        =     No
    SCS-MP2         =     False
    SCSN-MP2        =     False
    SCS-CCSD        =     False

MP2 correlation energy -0.4186946212617741
                Solving CC Amplitude Equations
                ------------------------------
  Iter             Energy              RMS        T1Diag      D1Diag    New D1Diag    D2Diag
  ----     ---------------------    ---------   ----------  ----------  ----------   --------
     0        -0.418694621261774    0.000e+00    0.000000    0.000000    0.000000    0.000000
     1        -0.429232683388213    6.055e-02    0.011872    0.000000    0.000000    0.000000
     2        -0.437560055101741    1.835e-02    0.012541    0.000000    0.000000    0.000000
     3        -0.439865475618423    1.182e-02    0.015238    0.000000    0.000000    0.000000
     4        -0.439805948466991    4.372e-03    0.016363    0.000000    0.000000    0.000000
     5        -0.439768048074769    2.995e-03    0.017127    0.000000    0.000000    0.000000
     6        -0.439833959668995    1.167e-03    0.017491    0.000000    0.000000    0.000000
     7        -0.439843663941118    5.496e-04    0.017588    0.000000    0.000000    0.000000
     8        -0.439842853300046    2.025e-04    0.017630    0.000000    0.000000    0.000000
     9        -0.439846168645903    1.070e-04    0.017636    0.000000    0.000000    0.000000
    10        -0.439841163340000    5.608e-05    0.017649    0.000000    0.000000    0.000000
    11        -0.439841653689716    2.625e-05    0.017649    0.000000    0.000000    0.000000
    12        -0.439841470202375    1.033e-05    0.017651    0.000000    0.000000    0.000000
    13        -0.439841630229195    5.320e-06    0.017650    0.000000    0.000000    0.000000
    14        -0.439841821581241    2.175e-06    0.017650    0.000000    0.000000    0.000000
    15        -0.439841827091938    9.848e-07    0.017650    0.000000    0.000000    0.000000
    16        -0.439841831046841    4.313e-07    0.017650    0.000000    0.000000    0.000000
    17        -0.439841832596768    1.460e-07    0.017650    0.000000    0.000000    0.000000
    18        -0.439841830310935    7.411e-08    0.017650    0.000000    0.000000    0.000000
    19        -0.439841830055368    2.213e-08    0.017650    0.000000    0.000000    0.000000
    20        -0.439841830268940    1.055e-08    0.017650    0.000000    0.000000    0.000000
    21        -0.439841830135889    4.426e-09    0.017650    0.000000    0.000000    0.000000
    22        -0.439841830134480    1.958e-09    0.017650    0.000000    0.000000    0.000000
    23        -0.439841830154977    7.057e-10    0.017650    0.000000    0.000000    0.000000
    24        -0.439841830156281    2.163e-10    0.017650    0.000000    0.000000    0.000000
    25        -0.439841830157241    1.194e-10    0.017650    0.000000    0.000000    0.000000
    26        -0.439841830159012    4.087e-11    0.017650    0.000000    0.000000    0.000000

    Iterations converged.


    Largest TIA Amplitudes:
              5  67        -0.0142775081
              5  65        -0.0124189743
              4  65        -0.0087921559
              2   6        -0.0086223364
              7  94         0.0081410074
              7  93        -0.0078125359
              5  66        -0.0069086081
              2   2         0.0068401699
              3   6        -0.0060037498
              2   1        -0.0056763859

    Largest Tia Amplitudes:
              2   1         0.0312720682
              3  66        -0.0235444805
              2   2         0.0150589427
              2   3        -0.0141674092
              3  69        -0.0125751779
              3  68        -0.0100833738
              5  96         0.0069862711
              3  67        -0.0066795286
              2   0        -0.0059437278
              2   6        -0.0054550080

    Largest TIJAB Amplitudes:
      7   4  54  22         0.0112595709
      7   4 100  70         0.0106183624
      6   3  98   9         0.0084708288
      7   2 109  22         0.0082937181
      4   2  70  16         0.0080080825
      6   5  50  10        -0.0079072041
      7   4 100  69         0.0077085039
      7   2 100  11        -0.0076781210
      7   2  99  11        -0.0076393165
      4   2  69  11         0.0075980213

    Largest Tijab Amplitudes:
      4   2 100  10         0.0088575125
      5   1  66  50         0.0087490994
      5   1 101   1         0.0081625252
      5   1 111   1        -0.0078404859
      4   3  51  11        -0.0075270675
      4   3  99  74        -0.0072990195
      4   3  99  69        -0.0072415991
      5   1  66  55        -0.0071763759
      4   3  99  72        -0.0065362042
      4   3  54  11        -0.0064036606

    Largest TIjAb Amplitudes:
      7   5 100 102        -0.0188329665
      7   1  54  66         0.0174788922
      5   3  72  74        -0.0167435250
      7   1 109   1        -0.0166901475
      6   4  97  99        -0.0161061707
      6   4  98 100        -0.0159860759
      4   1  21  66         0.0139052073
      7   1  49  66        -0.0138801439
      7   1  99   1         0.0135783940
      5   3  72  72        -0.0132615444

    SCF energy       (wfn)                    = -150.867416672380415
    Reference energy (file100)                = -150.867416672382291

    Opposite-spin MP2 correlation energy      =   -0.315844598524850
    Same-spin MP2 correlation energy          =   -0.102850022736924
    MP2 correlation energy                    =   -0.418694621261774
      * MP2 total energy                      = -151.286111293644069

    Opposite-spin CCSD correlation energy     =   -0.343578785174850
    Same-spin CCSD correlation energy         =   -0.096263044984162
    CCSD correlation energy                   =   -0.439841830159012
      * CCSD total energy                     = -151.307258502541316

            **************************
            *                        *
            *        CCTRIPLES       *
            *                        *
            **************************


    Wave function   =    CCSD_T
    Reference wfn   =      UHF

    Nuclear Rep. energy (wfn)                =   26.036201031393269
    SCF energy          (wfn)                = -150.867416672380415
    Reference energy    (file100)            = -150.867416672382291
    CCSD energy         (file100)            =   -0.439841830159012
    Total CCSD energy   (file100)            = -151.307258502541316

    Number of ijk index combinations:
    Spin Case AAA:                                  56
    Spin Case BBB:                                  20
    Spin Case AAB:                                 168
    Spin Case ABB:                                 120
    AAA (T) energy                             =   -0.000410523556121
    BBB (T) energy                             =   -0.000233894895163
    AAB (T) energy                             =   -0.006912742659007
    ABB (T) energy                             =   -0.005242416775650
    (T) energy                                   =   -0.012799577885942
      * CCSD(T) total energy                     = -151.320058080427231

Stephenergy -151.32005808042723
    Psi4 stopped on: Wednesday, 10 March 2021 09:18AM
    Psi4 wall time for execution: 0:01:56.98

*** Psi4 exiting successfully. Buy a developer a beer!
