
    -----------------------------------------------------------------------
          Psi4: An Open-Source Ab Initio Electronic Structure Package
                               Psi4 1.3.2 release

                         Git: Rev {HEAD} ecbda83 


    R. M. Parrish, L. A. Burns, D. G. A. Smith, A. C. Simmonett,
    A. E. DePrince III, E. G. Hohenstein, U. Bozkaya, A. Yu. Sokolov,
    R. Di Remigio, R. M. Richard, J. F. Gonthier, A. M. James,
    H. R. McAlexander, A. Kumar, M. Saitow, X. Wang, B. P. Pritchard,
    P. Verma, H. F. Schaefer III, K. Patkowski, R. A. King, E. F. Valeev,
    F. A. Evangelista, J. M. Turney, T. D. Crawford, and C. D. Sherrill,
    J. Chem. Theory Comput. 13(7) pp 3185--3197 (2017).
    (doi: 10.1021/acs.jctc.7b00174)


                         Additional Contributions by
    P. Kraus, H. Kruse, M. H. Lechner, M. C. Schieber, R. A. Shaw,
    A. Alenaizan, R. Galvelis, Z. L. Glick, S. Lehtola, and J. P. Misiewicz

    -----------------------------------------------------------------------


    Psi4 started on: Monday, 08 March 2021 05:32PM

    Process ID: 18758
    Host:       c1-22.compute.lan
    PSIDATADIR: /apps/gb/PSI4/1.3.2/share/psi4
    Memory:     500.0 MiB
    Threads:    12
    
  ==> Input File <==

--------------------------------------------------------------------------
memory 4 GB

molecule  {
0 3
O    0.000000000000    0.000000000000    1.264031471910
H    0.000000000000   -0.760458395200    1.851632437636
H   -0.000000000000    0.760458395200    1.851632437636
O    0.000000000000    0.000000000000   -1.497370825764
}
set {
basis aug-cc-pvtz
reference uhf
e_convergence 10
scf_type pk
freeze_core true
}

set ccenergy {
e_convergence 10
r_convergence 10
}

e = energy('ccsd(t)')

print_out('Stephenergy {}'.format(e))

--------------------------------------------------------------------------

  Memory set to   3.725 GiB by Python driver.

*** tstart() called on c1-22.compute.lan
*** at Mon Mar  8 17:32:11 2021

   => Loading Basis Set <=

    Name: AUG-CC-PVTZ
    Role: ORBITAL
    Keyword: BASIS
    atoms 1, 4 entry O          line   327 file /apps/gb/PSI4/1.3.2/share/psi4/basis/aug-cc-pvtz.gbs 
    atoms 2-3  entry H          line    36 file /apps/gb/PSI4/1.3.2/share/psi4/basis/aug-cc-pvtz.gbs 


         ---------------------------------------------------------
                                   SCF
               by Justin Turney, Rob Parrish, Andy Simmonett
                          and Daniel G. A. Smith
                              UHF Reference
                       12 Threads,   3814 MiB Core
         ---------------------------------------------------------

  ==> Geometry <==

    Molecular point group: c2v
    Full point group: C2v

    Geometry (in Angstrom), charge = 0, multiplicity = 3:

       Center              X                  Y                   Z               Mass       
    ------------   -----------------  -----------------  -----------------  -----------------
         O           -0.000000000000     0.000000000000     1.264031471910    15.994914619570
         H            0.000000000000    -0.760458395200     1.851632437636     1.007825032230
         H           -0.000000000000     0.760458395200     1.851632437636     1.007825032230
         O           -0.000000000000     0.000000000000    -1.497370825764    15.994914619570

  Running in c2v symmetry.

  Rotational constants: A =     14.46207  B =      0.24671  C =      0.24257 [cm^-1]
  Rotational constants: A = 433561.93424  B =   7396.20158  C =   7272.14491 [MHz]
  Nuclear repulsion =   23.888083027427541

  Charge       = 0
  Multiplicity = 3
  Electrons    = 18
  Nalpha       = 10
  Nbeta        = 8

  ==> Algorithm <==

  SCF Algorithm Type is PK.
  DIIS enabled.
  MOM disabled.
  Fractional occupation disabled.
  Guess Type is SAD.
  Energy threshold   = 1.00e-10
  Density threshold  = 1.00e-08
  Integral threshold = 0.00e+00

  ==> Primary Basis <==

  Basis Set: AUG-CC-PVTZ
    Blend: AUG-CC-PVTZ
    Number of shells: 46
    Number of basis function: 138
    Number of Cartesian functions: 160
    Spherical Harmonics?: true
    Max angular momentum: 3

  ==> Pre-Iterations <==

   -------------------------------------------------------
    Irrep   Nso     Nmo     Nalpha   Nbeta   Ndocc  Nsocc
   -------------------------------------------------------
     A1        54      54       0       0       0       0
     A2        17      17       0       0       0       0
     B1        29      29       0       0       0       0
     B2        38      38       0       0       0       0
   -------------------------------------------------------
    Total     138     138      10       8       8       2
   -------------------------------------------------------

  ==> Integral Setup <==

  Using in-core PK algorithm.
   Calculation information:
      Number of atoms:                   4
      Number of AO shells:              46
      Number of primitives:             82
      Number of atomic orbitals:       160
      Number of basis functions:       138

      Integral cutoff                 1.00e-12
      Number of threads:                12

  Performing in-core PK
  Using 91996872 doubles for integral storage.
  We computed 910869 shell quartets total.
  Whereas there are 584821 unique shell quartets.
    55.75 percent of shell quartets recomputed by reordering.

  ==> DiskJK: Disk-Based J/K Matrices <==

    J tasked:                  Yes
    K tasked:                  Yes
    wK tasked:                  No
    Memory [MiB]:             2861
    Schwarz Cutoff:          1E-12

    OpenMP threads:             12

  Minimum eigenvalue in the overlap matrix is 3.2138130443E-04.
  Using Symmetric Orthogonalization.

  SCF Guess: Superposition of Atomic Densities via on-the-fly atomic UHF.

  ==> Iterations <==

                        Total Energy        Delta E     RMS |[F,P]|

   @UHF iter SAD:  -149.38228909647637   -1.49382e+02   0.00000e+00 
   @UHF iter   1:  -150.76990457607189   -1.38762e+00   6.69246e-03 DIIS
   @UHF iter   2:  -150.84078625652279   -7.08817e-02   4.24798e-03 DIIS
   @UHF iter   3:  -150.87198267829424   -3.11964e-02   5.60393e-04 DIIS
   @UHF iter   4:  -150.87337063784636   -1.38796e-03   1.70755e-04 DIIS
   @UHF iter   5:  -150.87350475934147   -1.34121e-04   6.97256e-05 DIIS
   @UHF iter   6:  -150.87353777941826   -3.30201e-05   2.08801e-05 DIIS
   @UHF iter   7:  -150.87354088773623   -3.10832e-06   5.37274e-06 DIIS
   @UHF iter   8:  -150.87354111333968   -2.25603e-07   1.50678e-06 DIIS
   @UHF iter   9:  -150.87354113067596   -1.73363e-08   3.82892e-07 DIIS
   @UHF iter  10:  -150.87354113187067   -1.19471e-09   1.84922e-07 DIIS
   @UHF iter  11:  -150.87354113224603   -3.75366e-10   7.05715e-08 DIIS
   @UHF iter  12:  -150.87354113230140   -5.53655e-11   1.51053e-08 DIIS
   @UHF iter  13:  -150.87354113230322   -1.81899e-12   4.48804e-09 DIIS
  Energy and wave function converged.


  ==> Post-Iterations <==

   @Spin Contamination Metric:   9.539434904E-03
   @S^2 Expected:                2.000000000E+00
   @S^2 Observed:                2.009539435E+00
   @S   Expected:                1.000000000E+00
   @S   Observed:                1.000000000E+00

    Orbital Energies [Eh]
    ---------------------

    Alpha Occupied:                                                       

       1A1   -20.684271     2A1   -20.571041     3A1    -1.393741  
       4A1    -1.355487     1B2    -0.719506     5A1    -0.688145  
       1B1    -0.685020     6A1    -0.586072     2B2    -0.586031  
       2B1    -0.514022  

    Alpha Virtual:                                                        

       7A1     0.029581     3B2     0.047661     8A1     0.118413  
       3B1     0.154105     9A1     0.159514     4B2     0.180252  
       5B2     0.187095     4B1     0.192771    10A1     0.198042  
       1A2     0.263611     6B2     0.264382    11A1     0.265140  
      12A1     0.314448     5B1     0.327190    13A1     0.376071  
       7B2     0.380314    14A1     0.449952     8B2     0.464417  
       9B2     0.600193     6B1     0.643777    15A1     0.647525  
       2A2     0.658212    16A1     0.666885    17A1     0.697953  
       3A2     0.721543    10B2     0.723603     7B1     0.768433  
      18A1     0.793018    19A1     0.819560     8B1     0.837617  
      20A1     0.860620     9B1     0.901350    11B2     0.918683  
       4A2     0.924874    12B2     0.946467    13B2     0.980674  
      21A1     0.991174    10B1     1.014418    22A1     1.046847  
      14B2     1.051605    11B1     1.123284     5A2     1.176711  
      23A1     1.191856    15B2     1.200070    16B2     1.328915  
      24A1     1.335467    25A1     1.449238     6A2     1.507535  
      12B1     1.595449    26A1     1.668726    27A1     1.811839  
      17B2     1.820792    18B2     1.977834    28A1     2.040951  
      13B1     2.048169    19B2     2.054283     7A2     2.057602  
      14B1     2.059138    29A1     2.079161    30A1     2.115015  
       8A2     2.119108    20B2     2.137018    31A1     2.141811  
      15B1     2.146762    32A1     2.252610    21B2     2.270741  
      16B1     2.303029     9A2     2.311914    17B1     2.436331  
      33A1     2.473690    22B2     2.481558    34A1     2.488930  
      35A1     2.697597    18B1     2.716620    23B2     2.721906  
      36A1     2.842211    24B2     2.863216    10A2     2.880279  
      25B2     3.692719    37A1     3.755578    11A2     4.012758  
      19B1     4.080152    20B1     4.099831    38A1     4.143500  
      26B2     4.184147    27B2     4.281711    21B1     4.292134  
      39A1     4.354359    12A2     4.382335    40A1     4.430086  
      22B1     4.452806    28B2     4.514370    41A1     4.790427  
      29B2     4.839536    30B2     5.140149    13A2     5.146184  
      31B2     5.251227    42A1     5.342015    23B1     5.516641  
      43A1     5.688770    44A1     6.197722    24B1     6.389934  
      45A1     6.410277    14A2     6.410646    32B2     6.424014  
      25B1     6.435848    33B2     6.489061    46A1     6.539199  
      34B2     6.581922    26B1     6.717639    27B1     6.903255  
      47A1     6.906851    15A2     6.924827    48A1     6.941549  
      35B2     6.986444    49A1     7.046292    28B1     7.135861  
      29B1     7.278913    16A2     7.306422    36B2     7.313571  
      17A2     7.352967    50A1     7.436398    51A1     7.544681  
      52A1     7.912761    37B2     7.915450    38B2     8.806177  
      53A1     8.873738    54A1    15.791074  

    Beta Occupied:                                                        

       1A1   -20.605396     2A1   -20.570557     3A1    -1.354778  
       4A1    -1.050919     1B2    -0.719162     5A1    -0.587910  
       1B1    -0.513332     2B2    -0.495439  

    Beta Virtual:                                                         

       6A1     0.029421     3B2     0.047742     2B1     0.086672  
       7A1     0.092004     8A1     0.141138     9A1     0.167015  
       3B1     0.170624     4B2     0.180855     5B2     0.190720  
      10A1     0.225582     4B1     0.253407     1A2     0.263614  
       6B2     0.264822    11A1     0.288587    12A1     0.316895  
       5B1     0.328474     7B2     0.380485    13A1     0.386479  
      14A1     0.451013     8B2     0.464620     9B2     0.601836  
      15A1     0.660293     6B1     0.667555     2A2     0.672603  
      16A1     0.673962    17A1     0.715222     3A2     0.722020  
      10B2     0.735784     7B1     0.779866    18A1     0.806914  
       8B1     0.846907    19A1     0.851155     4A2     0.925278  
      20A1     0.927992    11B2     0.936492    12B2     0.953385  
      13B2     0.984522     9B1     0.987275    21A1     0.998286  
      14B2     1.052711    22A1     1.053249    10B1     1.060999  
      11B1     1.139831     5A2     1.176910    23A1     1.193328  
      15B2     1.202764    16B2     1.331349    24A1     1.392087  
      25A1     1.487937     6A2     1.507966    12B1     1.597432  
      26A1     1.699175    27A1     1.817030    17B2     1.821118  
      18B2     1.979302    28A1     2.070457    13B1     2.071008  
      19B2     2.071691     7A2     2.082268    29A1     2.099368  
      14B1     2.100999    30A1     2.156072    20B2     2.183504  
       8A2     2.202289    31A1     2.208691    15B1     2.259459  
      32A1     2.310289     9A2     2.312043    16B1     2.318435  
      21B2     2.321778    17B1     2.444670    33A1     2.483060  
      22B2     2.484402    34A1     2.520809    35A1     2.704808  
      18B1     2.718366    23B2     2.722819    36A1     2.854563  
      24B2     2.863366    10A2     2.880315    25B2     3.693632  
      37A1     3.755714    11A2     4.012788    19B1     4.082546  
      38A1     4.175921    26B2     4.219430    20B1     4.260285  
      27B2     4.292865    21B1     4.296577    12A2     4.382444  
      39A1     4.427255    22B1     4.458069    40A1     4.472035  
      28B2     4.514458    41A1     4.801588    29B2     4.839696  
      30B2     5.140340    13A2     5.146263    31B2     5.251667  
      42A1     5.342649    23B1     5.516756    43A1     5.693534  
      44A1     6.199320    24B1     6.485905    14A2     6.487474  
      32B2     6.488005    45A1     6.494009    25B1     6.499814  
      33B2     6.524424    34B2     6.610268    46A1     6.610801  
      26B1     6.724975    47A1     6.958231    15A2     7.038378  
      48A1     7.042366    27B1     7.085805    35B2     7.098297  
      28B1     7.136272    49A1     7.173727    29B1     7.283037  
      16A2     7.306705    36B2     7.313766    17A2     7.353392  
      50A1     7.439189    51A1     7.545763    52A1     7.913347  
      37B2     7.915812    38B2     8.806562    53A1     8.953017  
      54A1    15.791406  

    Final Occupation by Irrep:
             A1    A2    B1    B2 
    DOCC [     5,    0,    1,    2 ]
    SOCC [     1,    0,    1,    0 ]

  @UHF Final Energy:  -150.87354113230322

   => Energetics <=

    Nuclear Repulsion Energy =             23.8880830274275411
    One-Electron Energy =                -255.8424211847675451
    Two-Electron Energy =                  81.0807970250367873
    Total Energy =                       -150.8735411323032167

  UHF NO Occupations:
  HONO-2 :    5 A1 1.9970486
  HONO-1 :    6 A1 1.0000000
  HONO-0 :    2 B1 1.0000000
  LUNO+0 :    7 A1 0.0029514
  LUNO+1 :    3 B2 0.0017972
  LUNO+2 :    8 A1 0.0000231
  LUNO+3 :    9 A1 0.0000024


Computation Completed


Properties will be evaluated at   0.000000,   0.000000,   0.000000 [a0]

Properties computed using the SCF density matrix

  Nuclear Dipole Moment: [e a0]
     X:    -0.0000      Y:     0.0000      Z:     3.4706

  Electronic Dipole Moment: [e a0]
     X:     0.0000      Y:     0.0000      Z:    -2.6350

  Dipole Moment: [e a0]
     X:    -0.0000      Y:     0.0000      Z:     0.8356     Total:     0.8356

  Dipole Moment: [D]
     X:    -0.0000      Y:     0.0000      Z:     2.1239     Total:     2.1239


*** tstop() called on c1-22.compute.lan at Mon Mar  8 17:32:17 2021
Module time:
	user time   =      45.23 seconds =       0.75 minutes
	system time =       2.83 seconds =       0.05 minutes
	total time  =          6 seconds =       0.10 minutes
Total time:
	user time   =      45.23 seconds =       0.75 minutes
	system time =       2.83 seconds =       0.05 minutes
	total time  =          6 seconds =       0.10 minutes
 MINTS: Wrapper to libmints.
   by Justin Turney

   Calculation information:
      Number of threads:                12
      Number of atoms:                   4
      Number of AO shells:              46
      Number of SO shells:              37
      Number of primitives:             82
      Number of atomic orbitals:       160
      Number of basis functions:       138

      Number of irreps:                  4
      Integral cutoff                 0.00e+00
      Number of functions per irrep: [  54   17   29   38 ]

 OEINTS: Overlap, kinetic, potential, dipole, and quadrupole integrals
         stored in file 35.

      Computing two-electron integrals...done
      Computed 11524124 non-zero two-electron integrals.
        Stored in file 33.


*** tstart() called on c1-22.compute.lan
*** at Mon Mar  8 17:32:19 2021


	Wfn Parameters:
	--------------------
	Wavefunction         = CCSD_T
	Number of irreps     = 4
	Number of MOs        = 138
	Number of active MOs = 136
	AO-Basis             = NONE
	Semicanonical        = false
	Reference            = UHF
	Print Level          = 1

	IRREP	# MOs	# FZDC	# DOCC	# SOCC	# VIRT	# FZVR
	-----	-----	------	------	------	------	------
	 A1	   54	    2	    3	    1	    48	    0
	 A2	   17	    0	    0	    0	    17	    0
	 B1	   29	    0	    1	    1	    27	    0
	 B2	   38	    0	    2	    0	    36	    0
	Transforming integrals...
	IWL integrals will be deleted.
	(OO|OO)...
	Presorting SO-basis two-electron integrals.
	Sorting File: SO Ints (nn|nn) nbuckets = 1
	Transforming the one-electron integrals and constructing Fock matrices
	Starting AA/AB first half-transformation.
	Sorting AA/AB half-transformed integrals.
	Starting BB first half-transformation.
	Sorting BB half-transformed integrals.
	First half integral transformation complete.
	Starting AA second half-transformation.
	Starting AB second half-transformation.
	Starting BB second half-transformation.
	Two-electron integral transformation complete.
	(OO|OV)...
	Starting AA second half-transformation.
	Starting AB second half-transformation.
	Starting BB second half-transformation.
	Two-electron integral transformation complete.
	(OO|VV)...
	Starting AA second half-transformation.
	Starting AB second half-transformation.
	Starting BB second half-transformation.
	Two-electron integral transformation complete.
	(OV|OO)...
	Starting AA/AB first half-transformation.
	Sorting AA/AB half-transformed integrals.
	Starting BB first half-transformation.
	Sorting BB half-transformed integrals.
	First half integral transformation complete.
	Starting AA second half-transformation.
	Starting AB second half-transformation.
	Starting BB second half-transformation.
	Two-electron integral transformation complete.
	(OV|OV)...
	Starting AA second half-transformation.
	Starting AB second half-transformation.
	Starting BB second half-transformation.
	Two-electron integral transformation complete.
	(OV|VV)...
	Starting AA second half-transformation.
	Starting AB second half-transformation.
	Starting BB second half-transformation.
	Two-electron integral transformation complete.
	(VV|OO)...
	Starting AA/AB first half-transformation.
	Sorting AA/AB half-transformed integrals.
	Starting BB first half-transformation.
	Sorting BB half-transformed integrals.
	First half integral transformation complete.
	Starting AA second half-transformation.
	Starting AB second half-transformation.
	Starting BB second half-transformation.
	Two-electron integral transformation complete.
	(VV|OV)...
	Starting AA second half-transformation.
	Starting AB second half-transformation.
	Starting BB second half-transformation.
	Two-electron integral transformation complete.
	(VV|VV)...
	Starting AA second half-transformation.
	Starting AB second half-transformation.
	Starting BB second half-transformation.
	Two-electron integral transformation complete.
	Frozen core energy     =   -126.39540153249094

	Size of irrep 0 of <AB|CD> integrals:      5.040 (MW) /     40.320 (MB)
	Size of irrep 1 of <AB|CD> integrals:      3.197 (MW) /     25.576 (MB)
	Size of irrep 2 of <AB|CD> integrals:      3.640 (MW) /     29.124 (MB)
	Size of irrep 3 of <AB|CD> integrals:      4.783 (MW) /     38.264 (MB)
	Total:                                    16.660 (MW) /    133.283 (MB)

	Size of irrep 0 of <ab|cd> integrals:      5.382 (MW) /     43.059 (MB)
	Size of irrep 1 of <ab|cd> integrals:      3.389 (MW) /     27.114 (MB)
	Size of irrep 2 of <ab|cd> integrals:      3.936 (MW) /     31.490 (MB)
	Size of irrep 3 of <ab|cd> integrals:      5.018 (MW) /     40.141 (MB)
	Total:                                    17.726 (MW) /    141.804 (MB)

	Size of irrep 0 of <Ab|Cd> integrals:     22.024 (MW) /    176.194 (MB)
	Size of irrep 1 of <Ab|Cd> integrals:     13.170 (MW) /    105.357 (MB)
	Size of irrep 2 of <Ab|Cd> integrals:     15.140 (MW) /    121.119 (MB)
	Size of irrep 3 of <Ab|Cd> integrals:     19.598 (MW) /    156.787 (MB)
	Total:                                    69.932 (MW) /    559.457 (MB)

	Size of irrep 0 of <IA|BC> integrals:      1.469 (MW) /     11.748 (MB)
	Size of irrep 1 of <IA|BC> integrals:      0.694 (MW) /      5.550 (MB)
	Size of irrep 2 of <IA|BC> integrals:      0.908 (MW) /      7.266 (MB)
	Size of irrep 3 of <IA|BC> integrals:      1.198 (MW) /      9.588 (MB)
	Total:                                     4.269 (MW) /     34.152 (MB)

	Size of irrep 0 of <ia|bc> integrals:      1.178 (MW) /      9.426 (MB)
	Size of irrep 1 of <ia|bc> integrals:      0.527 (MW) /      4.212 (MB)
	Size of irrep 2 of <ia|bc> integrals:      0.663 (MW) /      5.301 (MB)
	Size of irrep 3 of <ia|bc> integrals:      0.999 (MW) /      7.992 (MB)
	Total:                                     3.366 (MW) /     26.931 (MB)

	Size of irrep 0 of <Ia|Bc> integrals:      1.521 (MW) /     12.164 (MB)
	Size of irrep 1 of <Ia|Bc> integrals:      0.711 (MW) /      5.690 (MB)
	Size of irrep 2 of <Ia|Bc> integrals:      0.949 (MW) /      7.595 (MB)
	Size of irrep 3 of <Ia|Bc> integrals:      1.222 (MW) /      9.775 (MB)
	Total:                                     4.403 (MW) /     35.225 (MB)

	Size of irrep 0 of <iA|bC> integrals:      1.140 (MW) /      9.123 (MB)
	Size of irrep 1 of <iA|bC> integrals:      0.512 (MW) /      4.094 (MB)
	Size of irrep 2 of <iA|bC> integrals:      0.634 (MW) /      5.074 (MB)
	Size of irrep 3 of <iA|bC> integrals:      0.978 (MW) /      7.827 (MB)
	Total:                                     3.265 (MW) /     26.118 (MB)

	Size of irrep 0 of tIjAb amplitudes:       0.084 (MW) /      0.676 (MB)
	Size of irrep 1 of tIjAb amplitudes:       0.022 (MW) /      0.174 (MB)
	Size of irrep 2 of tIjAb amplitudes:       0.039 (MW) /      0.311 (MB)
	Size of irrep 3 of tIjAb amplitudes:       0.062 (MW) /      0.496 (MB)
	Total:                                     0.207 (MW) /      1.657 (MB)

	Nuclear Rep. energy          =     23.88808302742754
	SCF energy                   =   -150.87354113230322
	One-electron energy          =    -85.48288255188893
	Two-electron (AA) energy     =     10.37610567413268
	Two-electron (BB) energy     =      5.47287408257071
	Two-electron (AB) energy     =     21.26768016794419
	Two-electron energy          =     37.11665992464758
	Reference energy             =   -150.87354113230475

*** tstop() called on c1-22.compute.lan at Mon Mar  8 17:32:44 2021
Module time:
	user time   =     104.69 seconds =       1.74 minutes
	system time =      14.69 seconds =       0.24 minutes
	total time  =         25 seconds =       0.42 minutes
Total time:
	user time   =     155.21 seconds =       2.59 minutes
	system time =      18.03 seconds =       0.30 minutes
	total time  =         33 seconds =       0.55 minutes
            **************************
            *                        *
            *        CCENERGY        *
            *                        *
            **************************

    Nuclear Rep. energy (wfn)     =   23.888083027427541
    SCF energy          (wfn)     = -150.873541132303217
    Reference energy    (file100) = -150.873541132304751

    Input parameters:
    -----------------
    Wave function   =     CCSD_T
    Reference wfn   =     UHF
    Brueckner       =     No
    Memory (Mbytes) =     4000.0
    Maxiter         =     50
    R_Convergence   =     1.0e-10
    E_Convergence   =     1.0e-10
    Restart         =     Yes
    DIIS            =     Yes
    AO Basis        =     NONE
    ABCD            =     NEW
    Cache Level     =     2
    Cache Type      =     LRU
    Print Level     =     1
    Num. of threads =     12
    # Amps to Print =     10
    Print MP2 Amps? =     No
    Analyze T2 Amps =     No
    Print Pair Ener =     No
    Local CC        =     No
    SCS-MP2         =     False
    SCSN-MP2        =     False
    SCS-CCSD        =     False

MP2 correlation energy -0.4162475394443362
                Solving CC Amplitude Equations
                ------------------------------
  Iter             Energy              RMS        T1Diag      D1Diag    New D1Diag    D2Diag
  ----     ---------------------    ---------   ----------  ----------  ----------   --------
     0        -0.416247539444336    0.000e+00    0.000000    0.000000    0.000000    0.000000
     1        -0.427042768467768    5.697e-02    0.010583    0.000000    0.000000    0.000000
     2        -0.435134872170033    1.702e-02    0.011080    0.000000    0.000000    0.000000
     3        -0.437285335163673    8.785e-03    0.013006    0.000000    0.000000    0.000000
     4        -0.437158759675452    2.689e-03    0.013418    0.000000    0.000000    0.000000
     5        -0.437149294966483    1.401e-03    0.013614    0.000000    0.000000    0.000000
     6        -0.437178545565724    5.307e-04    0.013642    0.000000    0.000000    0.000000
     7        -0.437181529331318    2.154e-04    0.013636    0.000000    0.000000    0.000000
     8        -0.437182452130326    6.678e-05    0.013631    0.000000    0.000000    0.000000
     9        -0.437183142954805    2.395e-05    0.013631    0.000000    0.000000    0.000000
    10        -0.437182237663188    9.230e-06    0.013630    0.000000    0.000000    0.000000
    11        -0.437182402847631    4.029e-06    0.013630    0.000000    0.000000    0.000000
    12        -0.437182363124517    1.464e-06    0.013630    0.000000    0.000000    0.000000
    13        -0.437182371285576    7.406e-07    0.013630    0.000000    0.000000    0.000000
    14        -0.437182394260151    3.104e-07    0.013630    0.000000    0.000000    0.000000
    15        -0.437182395931239    1.127e-07    0.013630    0.000000    0.000000    0.000000
    16        -0.437182396539718    5.110e-08    0.013630    0.000000    0.000000    0.000000
    17        -0.437182397105692    1.955e-08    0.013630    0.000000    0.000000    0.000000
    18        -0.437182396954088    1.034e-08    0.013630    0.000000    0.000000    0.000000
    19        -0.437182396731815    4.030e-09    0.013630    0.000000    0.000000    0.000000
    20        -0.437182396719982    2.168e-09    0.013630    0.000000    0.000000    0.000000
    21        -0.437182396696780    8.239e-10    0.013630    0.000000    0.000000    0.000000
    22        -0.437182396695510    3.298e-10    0.013630    0.000000    0.000000    0.000000
    23        -0.437182396694759    1.720e-10    0.013630    0.000000    0.000000    0.000000
    24        -0.437182396694583    7.063e-11    0.013630    0.000000    0.000000    0.000000

    Iterations converged.


    Largest TIA Amplitudes:
              5  65        -0.0133500857
              5  67        -0.0111547771
              7  94         0.0104721175
              5  66        -0.0096552864
              4  65        -0.0074698882
              3   1         0.0074475057
              2   3         0.0072150269
              4  66         0.0071760020
              3   5        -0.0055475501
              3   6         0.0054510029

    Largest Tia Amplitudes:
              3  67        -0.0147783720
              2   2         0.0136047984
              3  69        -0.0107657554
              5  96         0.0079969621
              3  66        -0.0077963233
              2   1        -0.0069400548
              2   7         0.0056906674
              2   6        -0.0055148256
              1  25        -0.0054116869
              4 109         0.0053829387

    Largest TIJAB Amplitudes:
      7   4 100  71         0.0142296953
      7   4  55  23        -0.0135988072
      7   2 100  12        -0.0120219315
      4   2  71  12         0.0108924742
      6   5  50   9        -0.0086328046
      7   4  49  23         0.0082593216
      6   5  97  72        -0.0081061382
      7   4  94  71         0.0078930477
      7   4  55   8        -0.0076286851
      7   4 100  82        -0.0073578207

    Largest Tijab Amplitudes:
      5   1  66  56         0.0086691030
      5   1  66  50        -0.0085606438
      5   1  68  56         0.0081643380
      4   3  99  67        -0.0076334757
      5   1  68  50        -0.0074552962
      4   3  99  73        -0.0072823721
      4   2  99   2         0.0071925670
      4   2  99  12         0.0069005863
      4   2 100   9        -0.0067465677
      4   3  51  10        -0.0065337271

    Largest TIjAb Amplitudes:
      6   4  97  99        -0.0217393809
      7   5 100 103        -0.0216967281
      7   5 100 102         0.0189639856
      7   1  55  66        -0.0180430215
      7   5 100  96        -0.0171173413
      7   1  55  68        -0.0168435381
      4   1  23  66        -0.0167048743
      5   3  72  73        -0.0162330982
      4   1  23  68        -0.0155512347
      7   5  55  56        -0.0145527795

    SCF energy       (wfn)                    = -150.873541132303217
    Reference energy (file100)                = -150.873541132304751

    Opposite-spin MP2 correlation energy      =   -0.314405062401744
    Same-spin MP2 correlation energy          =   -0.101842477042592
    MP2 correlation energy                    =   -0.416247539444336
      * MP2 total energy                      = -151.289788671749079

    Opposite-spin CCSD correlation energy     =   -0.342062121113948
    Same-spin CCSD correlation energy         =   -0.095120275580635
    CCSD correlation energy                   =   -0.437182396694583
      * CCSD total energy                     = -151.310723528999347

            **************************
            *                        *
            *        CCTRIPLES       *
            *                        *
            **************************


    Wave function   =    CCSD_T
    Reference wfn   =      UHF

    Nuclear Rep. energy (wfn)                =   23.888083027427541
    SCF energy          (wfn)                = -150.873541132303217
    Reference energy    (file100)            = -150.873541132304751
    CCSD energy         (file100)            =   -0.437182396694583
    Total CCSD energy   (file100)            = -151.310723528999347

    Number of ijk index combinations:
    Spin Case AAA:                                  56
    Spin Case BBB:                                  20
    Spin Case AAB:                                 168
    Spin Case ABB:                                 120
    AAA (T) energy                             =   -0.000395858862250
    BBB (T) energy                             =   -0.000202339121401
    AAB (T) energy                             =   -0.006708866954307
    ABB (T) energy                             =   -0.004984373682181
    (T) energy                                   =   -0.012291438620139
      * CCSD(T) total energy                     = -151.323014967619486

Stephenergy -151.32301496761949
    Psi4 stopped on: Monday, 08 March 2021 05:33PM
    Psi4 wall time for execution: 0:01:32.32

*** Psi4 exiting successfully. Buy a developer a beer!
