
    -----------------------------------------------------------------------
          Psi4: An Open-Source Ab Initio Electronic Structure Package
                               Psi4 1.3.2 release

                         Git: Rev {HEAD} ecbda83 


    R. M. Parrish, L. A. Burns, D. G. A. Smith, A. C. Simmonett,
    A. E. DePrince III, E. G. Hohenstein, U. Bozkaya, A. Yu. Sokolov,
    R. Di Remigio, R. M. Richard, J. F. Gonthier, A. M. James,
    H. R. McAlexander, A. Kumar, M. Saitow, X. Wang, B. P. Pritchard,
    P. Verma, H. F. Schaefer III, K. Patkowski, R. A. King, E. F. Valeev,
    F. A. Evangelista, J. M. Turney, T. D. Crawford, and C. D. Sherrill,
    J. Chem. Theory Comput. 13(7) pp 3185--3197 (2017).
    (doi: 10.1021/acs.jctc.7b00174)


                         Additional Contributions by
    P. Kraus, H. Kruse, M. H. Lechner, M. C. Schieber, R. A. Shaw,
    A. Alenaizan, R. Galvelis, Z. L. Glick, S. Lehtola, and J. P. Misiewicz

    -----------------------------------------------------------------------


    Psi4 started on: Wednesday, 10 March 2021 09:16AM

    Process ID: 39379
    Host:       c4-16.compute.lan
    PSIDATADIR: /apps/gb/PSI4/1.3.2/share/psi4
    Memory:     500.0 MiB
    Threads:    12
    
  ==> Input File <==

--------------------------------------------------------------------------
memory 4 GB

molecule  {
0 3
O    0.000000000000    0.000000000000   -1.261379187475
H    0.000000000000   -0.764253411732   -0.671653124075
H   -0.000000000000    0.764253411732   -0.671653124075
O    0.000000000000    0.000000000000    1.346019693225
}
set {
basis aug-cc-pvtz
reference uhf
e_convergence 10
scf_type pk
freeze_core true
}

set ccenergy {
e_convergence 10
r_convergence 10
}

e = energy('ccsd(t)')

print_out('Stephenergy {}'.format(e))

--------------------------------------------------------------------------

  Memory set to   3.725 GiB by Python driver.

*** tstart() called on c4-16.compute.lan
*** at Wed Mar 10 09:16:24 2021

   => Loading Basis Set <=

    Name: AUG-CC-PVTZ
    Role: ORBITAL
    Keyword: BASIS
    atoms 1, 4 entry O          line   327 file /apps/gb/PSI4/1.3.2/share/psi4/basis/aug-cc-pvtz.gbs 
    atoms 2-3  entry H          line    36 file /apps/gb/PSI4/1.3.2/share/psi4/basis/aug-cc-pvtz.gbs 


         ---------------------------------------------------------
                                   SCF
               by Justin Turney, Rob Parrish, Andy Simmonett
                          and Daniel G. A. Smith
                              UHF Reference
                       12 Threads,   3814 MiB Core
         ---------------------------------------------------------

  ==> Geometry <==

    Molecular point group: c2v
    Full point group: C2v

    Geometry (in Angstrom), charge = 0, multiplicity = 3:

       Center              X                  Y                   Z               Mass       
    ------------   -----------------  -----------------  -----------------  -----------------
         O           -0.000000000000     0.000000000000    -1.261379187475    15.994914619570
         H            0.000000000000    -0.764253411732    -0.671653124075     1.007825032230
         H           -0.000000000000     0.764253411732    -0.671653124075     1.007825032230
         O           -0.000000000000     0.000000000000     1.346019693225    15.994914619570

  Running in c2v symmetry.

  Rotational constants: A =     14.31880  B =      0.30463  C =      0.29829 [cm^-1]
  Rotational constants: A = 429266.78945  B =   9132.66217  C =   8942.41212 [MHz]
  Nuclear repulsion =   26.030330208281640

  Charge       = 0
  Multiplicity = 3
  Electrons    = 18
  Nalpha       = 10
  Nbeta        = 8

  ==> Algorithm <==

  SCF Algorithm Type is PK.
  DIIS enabled.
  MOM disabled.
  Fractional occupation disabled.
  Guess Type is SAD.
  Energy threshold   = 1.00e-10
  Density threshold  = 1.00e-08
  Integral threshold = 0.00e+00

  ==> Primary Basis <==

  Basis Set: AUG-CC-PVTZ
    Blend: AUG-CC-PVTZ
    Number of shells: 46
    Number of basis function: 138
    Number of Cartesian functions: 160
    Spherical Harmonics?: true
    Max angular momentum: 3

  ==> Pre-Iterations <==

   -------------------------------------------------------
    Irrep   Nso     Nmo     Nalpha   Nbeta   Ndocc  Nsocc
   -------------------------------------------------------
     A1        54      54       0       0       0       0
     A2        17      17       0       0       0       0
     B1        29      29       0       0       0       0
     B2        38      38       0       0       0       0
   -------------------------------------------------------
    Total     138     138      10       8       8       2
   -------------------------------------------------------

  ==> Integral Setup <==

  Using in-core PK algorithm.
   Calculation information:
      Number of atoms:                   4
      Number of AO shells:              46
      Number of primitives:             82
      Number of atomic orbitals:       160
      Number of basis functions:       138

      Integral cutoff                 1.00e-12
      Number of threads:                12

  Performing in-core PK
  Using 91996872 doubles for integral storage.
  We computed 946061 shell quartets total.
  Whereas there are 584821 unique shell quartets.
    61.77 percent of shell quartets recomputed by reordering.

  ==> DiskJK: Disk-Based J/K Matrices <==

    J tasked:                  Yes
    K tasked:                  Yes
    wK tasked:                  No
    Memory [MiB]:             2861
    Schwarz Cutoff:          1E-12

    OpenMP threads:             12

  Minimum eigenvalue in the overlap matrix is 3.4244327131E-04.
  Using Symmetric Orthogonalization.

  SCF Guess: Superposition of Atomic Densities via on-the-fly atomic UHF.

  ==> Iterations <==

                        Total Energy        Delta E     RMS |[F,P]|

   @UHF iter SAD:  -149.44398818711409   -1.49444e+02   0.00000e+00 
   @UHF iter   1:  -150.75489625624937   -1.31091e+00   6.72133e-03 DIIS
   @UHF iter   2:  -150.83112195197145   -7.62257e-02   4.27396e-03 DIIS
   @UHF iter   3:  -150.86483023269693   -3.37083e-02   6.56725e-04 DIIS
   @UHF iter   4:  -150.86710865386229   -2.27842e-03   1.83659e-04 DIIS
   @UHF iter   5:  -150.86729135850246   -1.82705e-04   7.67550e-05 DIIS
   @UHF iter   6:  -150.86733295052028   -4.15920e-05   2.68617e-05 DIIS
   @UHF iter   7:  -150.86733859004576   -5.63953e-06   9.03194e-06 DIIS
   @UHF iter   8:  -150.86733928674192   -6.96696e-07   4.06968e-06 DIIS
   @UHF iter   9:  -150.86733945499628   -1.68254e-07   1.60924e-06 DIIS
   @UHF iter  10:  -150.86733948493838   -2.99421e-08   4.20882e-07 DIIS
   @UHF iter  11:  -150.86733948664306   -1.70468e-09   8.76906e-08 DIIS
   @UHF iter  12:  -150.86733948668984   -4.67821e-11   2.03705e-08 DIIS
   @UHF iter  13:  -150.86733948669280   -2.95586e-12   7.64504e-09 DIIS
  Energy and wave function converged.


  ==> Post-Iterations <==

   @Spin Contamination Metric:   9.837952716E-03
   @S^2 Expected:                2.000000000E+00
   @S^2 Observed:                2.009837953E+00
   @S   Expected:                1.000000000E+00
   @S   Observed:                1.000000000E+00

    Orbital Energies [Eh]
    ---------------------

    Alpha Occupied:                                                       

       1A1   -20.734756     2A1   -20.568259     3A1    -1.448140  
       4A1    -1.352341     5A1    -0.746159     1B1    -0.736338  
       1B2    -0.717379     2B2    -0.636243     6A1    -0.580745  
       2B1    -0.510865  

    Alpha Virtual:                                                        

       7A1     0.036720     3B2     0.050199     8A1     0.119828  
       3B1     0.130725     9A1     0.155541     4B2     0.166298  
       4B1     0.189697     5B2     0.190602    10A1     0.192293  
       1A2     0.263378    11A1     0.263941     6B2     0.273971  
      12A1     0.289516     5B1     0.335551     7B2     0.393560  
      13A1     0.403663    14A1     0.452672     8B2     0.474850  
       9B2     0.631963     2A2     0.644424     6B1     0.650940  
      15A1     0.659175    16A1     0.678485    17A1     0.709710  
       3A2     0.723461    18A1     0.735114    10B2     0.766318  
       7B1     0.789904     8B1     0.838286    19A1     0.882319  
      11B2     0.886748     9B1     0.921810    12B2     0.942458  
      20A1     0.978599     4A2     0.980385    21A1     1.024351  
      10B1     1.027416    13B2     1.056460    22A1     1.092148  
      14B2     1.123046    23A1     1.139439     5A2     1.206529  
      11B1     1.218641    24A1     1.238388    15B2     1.251393  
      16B2     1.437460     6A2     1.509619    25A1     1.564103  
      12B1     1.581035    17B2     1.756849    26A1     1.805039  
      27A1     1.848109    18B2     1.947697    13B1     2.004572  
      28A1     2.030120    14B1     2.037034     7A2     2.073935  
      19B2     2.074856    29A1     2.088175    30A1     2.167239  
      15B1     2.169503     8A2     2.178603    31A1     2.204220  
      20B2     2.204514     9A2     2.372046    32A1     2.376776  
      16B1     2.423254    21B2     2.437479    33A1     2.460466  
      17B1     2.508831    22B2     2.521445    34A1     2.538324  
      35A1     2.731227    18B1     2.732606    23B2     2.750617  
      10A2     2.880638    36A1     2.888035    24B2     2.939029  
      25B2     3.674634    37A1     3.812064    11A2     4.030568  
      19B1     4.075048    20B1     4.105689    38A1     4.208418  
      26B2     4.227701    21B1     4.308994    27B2     4.311628  
      12A2     4.379371    22B1     4.441124    39A1     4.451384  
      40A1     4.584892    28B2     4.649597    41A1     4.742097  
      29B2     4.888194    30B2     5.145843    13A2     5.146109  
      31B2     5.270129    42A1     5.352679    23B1     5.504737  
      43A1     5.689556    44A1     6.215950    24B1     6.390632  
      32B2     6.398867    25B1     6.422704    14A2     6.442680  
      45A1     6.462234    33B2     6.531046    46A1     6.585129  
      34B2     6.699462    26B1     6.766447    27B1     6.879750  
      47A1     6.882052    15A2     6.894791    48A1     6.957116  
      49A1     6.981309    35B2     7.006308    28B1     7.163667  
      29B1     7.256051    16A2     7.300301    17A2     7.358179  
      36B2     7.369454    50A1     7.372360    51A1     7.579490  
      37B2     7.933746    52A1     7.977730    38B2     8.779100  
      53A1     9.742301    54A1    15.679642  

    Beta Occupied:                                                        

       1A1   -20.655898     2A1   -20.566872     3A1    -1.349382  
       4A1    -1.104508     1B2    -0.715616     5A1    -0.580196  
       2B2    -0.546879     1B1    -0.508851  

    Beta Virtual:                                                         

       6A1     0.037512     2B1     0.046586     3B2     0.050550  
       7A1     0.052560     8A1     0.142005     3B1     0.160001  
       4B2     0.168275     9A1     0.182323     5B2     0.192860  
      10A1     0.193834     4B1     0.226606     1A2     0.263660  
      11A1     0.267484     6B2     0.274279    12A1     0.297392  
       5B1     0.343575     7B2     0.395778    13A1     0.431489  
      14A1     0.456804     8B2     0.474974     9B2     0.631645  
       2A2     0.658684     6B1     0.669987    15A1     0.673707  
      16A1     0.702761    17A1     0.711779     3A2     0.723810  
      10B2     0.782325    18A1     0.791672     7B1     0.818062  
      19A1     0.892054    11B2     0.900827     8B1     0.918318  
       9B1     0.934838    12B2     0.946291     4A2     0.982347  
      20A1     0.984272    21A1     1.033707    13B2     1.057323  
      10B1     1.057565    22A1     1.112645    14B2     1.131886  
      23A1     1.204033     5A2     1.207674    11B1     1.240668  
      24A1     1.250651    15B2     1.251724    16B2     1.443578  
       6A2     1.509839    12B1     1.581851    25A1     1.584458  
      17B2     1.761091    26A1     1.814209    27A1     1.885794  
      18B2     1.950689    13B1     2.028127    28A1     2.088710  
      19B2     2.089510    14B1     2.103284    29A1     2.137090  
       7A2     2.141547     8A2     2.210030    30A1     2.230214  
      31A1     2.234330    15B1     2.253503    20B2     2.274354  
       9A2     2.380169    32A1     2.412825    16B1     2.453079  
      21B2     2.455299    33A1     2.478879    17B1     2.509633  
      22B2     2.529231    34A1     2.550893    18B1     2.733674  
      35A1     2.744081    23B2     2.754033    10A2     2.881020  
      36A1     2.895720    24B2     2.940757    25B2     3.675259  
      37A1     3.822243    11A2     4.030200    19B1     4.105573  
      20B1     4.228404    38A1     4.242013    26B2     4.244993  
      21B1     4.322322    27B2     4.337445    12A2     4.379038  
      22B1     4.445728    39A1     4.482837    28B2     4.652168  
      40A1     4.672443    41A1     4.744201    29B2     4.889756  
      13A2     5.146330    30B2     5.147140    31B2     5.271187  
      42A1     5.355135    23B1     5.505183    43A1     5.691177  
      44A1     6.221700    24B1     6.447782    32B2     6.456844  
      14A2     6.518784    25B1     6.529414    33B2     6.534668  
      45A1     6.538033    46A1     6.663125    34B2     6.762910  
      26B1     6.768450    47A1     6.954401    15A2     7.007545  
      48A1     7.015704    27B1     7.063389    35B2     7.115273  
      49A1     7.118565    28B1     7.166771    29B1     7.259274  
      16A2     7.301472    17A2     7.359285    36B2     7.370356  
      50A1     7.380749    51A1     7.585389    37B2     7.935229  
      52A1     7.980878    38B2     8.781016    53A1     9.814101  
      54A1    15.680609  

    Final Occupation by Irrep:
             A1    A2    B1    B2 
    DOCC [     5,    0,    1,    2 ]
    SOCC [     1,    0,    1,    0 ]

  @UHF Final Energy:  -150.86733948669280

   => Energetics <=

    Nuclear Repulsion Energy =             26.0303302082816401
    One-Electron Energy =                -259.7359124956460050
    Two-Electron Energy =                  82.8382428006715656
    Total Energy =                       -150.8673394866927993

  UHF NO Occupations:
  HONO-2 :    5 A1 1.9970620
  HONO-1 :    2 B1 1.0000000
  HONO-0 :    6 A1 1.0000000
  LUNO+0 :    7 A1 0.0029380
  LUNO+1 :    3 B2 0.0017494
  LUNO+2 :    8 A1 0.0002183
  LUNO+3 :    3 B1 0.0000125


Computation Completed


Properties will be evaluated at   0.000000,   0.000000,   0.000000 [a0]

Properties computed using the SCF density matrix

  Nuclear Dipole Moment: [e a0]
     X:    -0.0000      Y:     0.0000      Z:    -1.2589

  Electronic Dipole Moment: [e a0]
     X:     0.0000      Y:     0.0000      Z:     2.0750

  Dipole Moment: [e a0]
     X:    -0.0000      Y:     0.0000      Z:     0.8161     Total:     0.8161

  Dipole Moment: [D]
     X:    -0.0000      Y:     0.0000      Z:     2.0744     Total:     2.0744


*** tstop() called on c4-16.compute.lan at Wed Mar 10 09:16:31 2021
Module time:
	user time   =      54.67 seconds =       0.91 minutes
	system time =       1.99 seconds =       0.03 minutes
	total time  =          7 seconds =       0.12 minutes
Total time:
	user time   =      54.67 seconds =       0.91 minutes
	system time =       1.99 seconds =       0.03 minutes
	total time  =          7 seconds =       0.12 minutes
 MINTS: Wrapper to libmints.
   by Justin Turney

   Calculation information:
      Number of threads:                12
      Number of atoms:                   4
      Number of AO shells:              46
      Number of SO shells:              37
      Number of primitives:             82
      Number of atomic orbitals:       160
      Number of basis functions:       138

      Number of irreps:                  4
      Integral cutoff                 0.00e+00
      Number of functions per irrep: [  54   17   29   38 ]

 OEINTS: Overlap, kinetic, potential, dipole, and quadrupole integrals
         stored in file 35.

      Computing two-electron integrals...done
      Computed 11513448 non-zero two-electron integrals.
        Stored in file 33.


*** tstart() called on c4-16.compute.lan
*** at Wed Mar 10 09:16:33 2021


	Wfn Parameters:
	--------------------
	Wavefunction         = CCSD_T
	Number of irreps     = 4
	Number of MOs        = 138
	Number of active MOs = 136
	AO-Basis             = NONE
	Semicanonical        = false
	Reference            = UHF
	Print Level          = 1

	IRREP	# MOs	# FZDC	# DOCC	# SOCC	# VIRT	# FZVR
	-----	-----	------	------	------	------	------
	 A1	   54	    2	    3	    1	    48	    0
	 A2	   17	    0	    0	    0	    17	    0
	 B1	   29	    0	    1	    1	    27	    0
	 B2	   38	    0	    2	    0	    36	    0
	Transforming integrals...
	IWL integrals will be deleted.
	(OO|OO)...
	Presorting SO-basis two-electron integrals.
	Sorting File: SO Ints (nn|nn) nbuckets = 1
	Transforming the one-electron integrals and constructing Fock matrices
	Starting AA/AB first half-transformation.
	Sorting AA/AB half-transformed integrals.
	Starting BB first half-transformation.
	Sorting BB half-transformed integrals.
	First half integral transformation complete.
	Starting AA second half-transformation.
	Starting AB second half-transformation.
	Starting BB second half-transformation.
	Two-electron integral transformation complete.
	(OO|OV)...
	Starting AA second half-transformation.
	Starting AB second half-transformation.
	Starting BB second half-transformation.
	Two-electron integral transformation complete.
	(OO|VV)...
	Starting AA second half-transformation.
	Starting AB second half-transformation.
	Starting BB second half-transformation.
	Two-electron integral transformation complete.
	(OV|OO)...
	Starting AA/AB first half-transformation.
	Sorting AA/AB half-transformed integrals.
	Starting BB first half-transformation.
	Sorting BB half-transformed integrals.
	First half integral transformation complete.
	Starting AA second half-transformation.
	Starting AB second half-transformation.
	Starting BB second half-transformation.
	Two-electron integral transformation complete.
	(OV|OV)...
	Starting AA second half-transformation.
	Starting AB second half-transformation.
	Starting BB second half-transformation.
	Two-electron integral transformation complete.
	(OV|VV)...
	Starting AA second half-transformation.
	Starting AB second half-transformation.
	Starting BB second half-transformation.
	Two-electron integral transformation complete.
	(VV|OO)...
	Starting AA/AB first half-transformation.
	Sorting AA/AB half-transformed integrals.
	Starting BB first half-transformation.
	Sorting BB half-transformed integrals.
	First half integral transformation complete.
	Starting AA second half-transformation.
	Starting AB second half-transformation.
	Starting BB second half-transformation.
	Two-electron integral transformation complete.
	(VV|OV)...
	Starting AA second half-transformation.
	Starting AB second half-transformation.
	Starting BB second half-transformation.
	Two-electron integral transformation complete.
	(VV|VV)...
	Starting AA second half-transformation.
	Starting AB second half-transformation.
	Starting BB second half-transformation.
	Two-electron integral transformation complete.
	Frozen core energy     =   -127.06751391452264

	Size of irrep 0 of <AB|CD> integrals:      5.040 (MW) /     40.320 (MB)
	Size of irrep 1 of <AB|CD> integrals:      3.197 (MW) /     25.576 (MB)
	Size of irrep 2 of <AB|CD> integrals:      3.640 (MW) /     29.124 (MB)
	Size of irrep 3 of <AB|CD> integrals:      4.783 (MW) /     38.264 (MB)
	Total:                                    16.660 (MW) /    133.283 (MB)

	Size of irrep 0 of <ab|cd> integrals:      5.382 (MW) /     43.059 (MB)
	Size of irrep 1 of <ab|cd> integrals:      3.389 (MW) /     27.114 (MB)
	Size of irrep 2 of <ab|cd> integrals:      3.936 (MW) /     31.490 (MB)
	Size of irrep 3 of <ab|cd> integrals:      5.018 (MW) /     40.141 (MB)
	Total:                                    17.726 (MW) /    141.804 (MB)

	Size of irrep 0 of <Ab|Cd> integrals:     22.024 (MW) /    176.194 (MB)
	Size of irrep 1 of <Ab|Cd> integrals:     13.170 (MW) /    105.357 (MB)
	Size of irrep 2 of <Ab|Cd> integrals:     15.140 (MW) /    121.119 (MB)
	Size of irrep 3 of <Ab|Cd> integrals:     19.598 (MW) /    156.787 (MB)
	Total:                                    69.932 (MW) /    559.457 (MB)

	Size of irrep 0 of <IA|BC> integrals:      1.469 (MW) /     11.748 (MB)
	Size of irrep 1 of <IA|BC> integrals:      0.694 (MW) /      5.550 (MB)
	Size of irrep 2 of <IA|BC> integrals:      0.908 (MW) /      7.266 (MB)
	Size of irrep 3 of <IA|BC> integrals:      1.198 (MW) /      9.588 (MB)
	Total:                                     4.269 (MW) /     34.152 (MB)

	Size of irrep 0 of <ia|bc> integrals:      1.178 (MW) /      9.426 (MB)
	Size of irrep 1 of <ia|bc> integrals:      0.527 (MW) /      4.212 (MB)
	Size of irrep 2 of <ia|bc> integrals:      0.663 (MW) /      5.301 (MB)
	Size of irrep 3 of <ia|bc> integrals:      0.999 (MW) /      7.992 (MB)
	Total:                                     3.366 (MW) /     26.931 (MB)

	Size of irrep 0 of <Ia|Bc> integrals:      1.521 (MW) /     12.164 (MB)
	Size of irrep 1 of <Ia|Bc> integrals:      0.711 (MW) /      5.690 (MB)
	Size of irrep 2 of <Ia|Bc> integrals:      0.949 (MW) /      7.595 (MB)
	Size of irrep 3 of <Ia|Bc> integrals:      1.222 (MW) /      9.775 (MB)
	Total:                                     4.403 (MW) /     35.225 (MB)

	Size of irrep 0 of <iA|bC> integrals:      1.140 (MW) /      9.123 (MB)
	Size of irrep 1 of <iA|bC> integrals:      0.512 (MW) /      4.094 (MB)
	Size of irrep 2 of <iA|bC> integrals:      0.634 (MW) /      5.074 (MB)
	Size of irrep 3 of <iA|bC> integrals:      0.978 (MW) /      7.827 (MB)
	Total:                                     3.265 (MW) /     26.118 (MB)

	Size of irrep 0 of tIjAb amplitudes:       0.084 (MW) /      0.676 (MB)
	Size of irrep 1 of tIjAb amplitudes:       0.022 (MW) /      0.174 (MB)
	Size of irrep 2 of tIjAb amplitudes:       0.039 (MW) /      0.311 (MB)
	Size of irrep 3 of tIjAb amplitudes:       0.062 (MW) /      0.496 (MB)
	Total:                                     0.207 (MW) /      1.657 (MB)

	Nuclear Rep. energy          =     26.03033020828164
	SCF energy                   =   -150.86733948669280
	One-electron energy          =    -88.12666858435767
	Two-electron (AA) energy     =     10.77566083497693
	Two-electron (BB) energy     =      5.65883714260902
	Two-electron (AB) energy     =     21.86201482631774
	Two-electron energy          =     38.29651280390370
	Reference energy             =   -150.86733948669496

*** tstop() called on c4-16.compute.lan at Wed Mar 10 09:16:54 2021
Module time:
	user time   =      55.22 seconds =       0.92 minutes
	system time =      10.52 seconds =       0.18 minutes
	total time  =         21 seconds =       0.35 minutes
Total time:
	user time   =     115.28 seconds =       1.92 minutes
	system time =      12.89 seconds =       0.21 minutes
	total time  =         30 seconds =       0.50 minutes
            **************************
            *                        *
            *        CCENERGY        *
            *                        *
            **************************

    Nuclear Rep. energy (wfn)     =   26.030330208281640
    SCF energy          (wfn)     = -150.867339486692799
    Reference energy    (file100) = -150.867339486694959

    Input parameters:
    -----------------
    Wave function   =     CCSD_T
    Reference wfn   =     UHF
    Brueckner       =     No
    Memory (Mbytes) =     4000.0
    Maxiter         =     50
    R_Convergence   =     1.0e-10
    E_Convergence   =     1.0e-10
    Restart         =     Yes
    DIIS            =     Yes
    AO Basis        =     NONE
    ABCD            =     NEW
    Cache Level     =     2
    Cache Type      =     LRU
    Print Level     =     1
    Num. of threads =     12
    # Amps to Print =     10
    Print MP2 Amps? =     No
    Analyze T2 Amps =     No
    Print Pair Ener =     No
    Local CC        =     No
    SCS-MP2         =     False
    SCSN-MP2        =     False
    SCS-CCSD        =     False

MP2 correlation energy -0.4187569779131513
                Solving CC Amplitude Equations
                ------------------------------
  Iter             Energy              RMS        T1Diag      D1Diag    New D1Diag    D2Diag
  ----     ---------------------    ---------   ----------  ----------  ----------   --------
     0        -0.418756977913151    0.000e+00    0.000000    0.000000    0.000000    0.000000
     1        -0.429277118825326    6.061e-02    0.011887    0.000000    0.000000    0.000000
     2        -0.437612957150788    1.837e-02    0.012555    0.000000    0.000000    0.000000
     3        -0.439922829465494    1.185e-02    0.015259    0.000000    0.000000    0.000000
     4        -0.439863602865666    4.384e-03    0.016388    0.000000    0.000000    0.000000
     5        -0.439825736943929    3.004e-03    0.017156    0.000000    0.000000    0.000000
     6        -0.439891865971798    1.171e-03    0.017523    0.000000    0.000000    0.000000
     7        -0.439901601447593    5.513e-04    0.017620    0.000000    0.000000    0.000000
     8        -0.439900791485554    2.030e-04    0.017662    0.000000    0.000000    0.000000
     9        -0.439904116060204    1.072e-04    0.017668    0.000000    0.000000    0.000000
    10        -0.439899098305061    5.617e-05    0.017681    0.000000    0.000000    0.000000
    11        -0.439899587524339    2.632e-05    0.017681    0.000000    0.000000    0.000000
    12        -0.439899403491903    1.038e-05    0.017683    0.000000    0.000000    0.000000
    13        -0.439899563659097    5.351e-06    0.017682    0.000000    0.000000    0.000000
    14        -0.439899755885794    2.190e-06    0.017683    0.000000    0.000000    0.000000
    15        -0.439899761275218    9.910e-07    0.017682    0.000000    0.000000    0.000000
    16        -0.439899765284813    4.341e-07    0.017683    0.000000    0.000000    0.000000
    17        -0.439899766863671    1.469e-07    0.017683    0.000000    0.000000    0.000000
    18        -0.439899764577284    7.458e-08    0.017683    0.000000    0.000000    0.000000
    19        -0.439899764317103    2.227e-08    0.017683    0.000000    0.000000    0.000000
    20        -0.439899764529159    1.062e-08    0.017683    0.000000    0.000000    0.000000
    21        -0.439899764395120    4.466e-09    0.017683    0.000000    0.000000    0.000000
    22        -0.439899764393039    1.972e-09    0.017683    0.000000    0.000000    0.000000
    23        -0.439899764413558    7.143e-10    0.017683    0.000000    0.000000    0.000000
    24        -0.439899764414779    2.188e-10    0.017683    0.000000    0.000000    0.000000
    25        -0.439899764415684    1.208e-10    0.017683    0.000000    0.000000    0.000000
    26        -0.439899764417460    4.135e-11    0.017683    0.000000    0.000000    0.000000

    Iterations converged.


    Largest TIA Amplitudes:
              5  67        -0.0142842717
              5  65        -0.0124413264
              4  65        -0.0087977748
              2   6        -0.0086099196
              7  94         0.0081527092
              7  93        -0.0078165134
              5  66        -0.0069253396
              2   2         0.0068425607
              3   6        -0.0060125185
              2   1        -0.0056838897

    Largest Tia Amplitudes:
              2   1         0.0313755962
              3  66        -0.0235840469
              2   2         0.0151039603
              2   3        -0.0142826408
              3  69        -0.0125796381
              3  68        -0.0101009607
              5  96         0.0070016790
              3  67        -0.0066957420
              2   0        -0.0059074156
              2   6        -0.0054671717

    Largest TIJAB Amplitudes:
      7   4  54  22         0.0112302778
      7   4 100  70         0.0106214104
      6   3  98   9         0.0084343510
      7   2 109  22         0.0082894929
      4   2  70  16         0.0080120487
      6   5  50  10        -0.0078680577
      7   4 100  69         0.0077239847
      7   2 100  11        -0.0076812877
      7   2  99  11        -0.0076430290
      4   2  69  11         0.0076112797

    Largest Tijab Amplitudes:
      4   2 100  10         0.0088326963
      5   1  66  50         0.0087481283
      5   1 101   1         0.0081633917
      5   1 111   1        -0.0078375701
      4   3  51  11        -0.0074386035
      4   3  99  74        -0.0073178155
      4   3  99  69        -0.0072471387
      5   1  66  55        -0.0071650050
      4   3  99  72        -0.0065315580
      4   3  54  11        -0.0063273166

    Largest TIjAb Amplitudes:
      7   5 100 102        -0.0188654482
      7   1  54  66         0.0174660379
      5   3  72  74        -0.0168174978
      7   1 109   1        -0.0166840712
      6   4  97  99        -0.0161433658
      6   4  98 100        -0.0159660981
      4   1  21  66         0.0139271998
      7   1  49  66        -0.0138778985
      7   1  99   1         0.0135797849
      5   3  72  72        -0.0132743841

    SCF energy       (wfn)                    = -150.867339486692799
    Reference energy (file100)                = -150.867339486694959

    Opposite-spin MP2 correlation energy      =   -0.315891848547299
    Same-spin MP2 correlation energy          =   -0.102865129365852
    MP2 correlation energy                    =   -0.418756977913151
      * MP2 total energy                      = -151.286096464608107

    Opposite-spin CCSD correlation energy     =   -0.343631365797502
    Same-spin CCSD correlation energy         =   -0.096268398619958
    CCSD correlation energy                   =   -0.439899764417460
      * CCSD total energy                     = -151.307239251112406

            **************************
            *                        *
            *        CCTRIPLES       *
            *                        *
            **************************


    Wave function   =    CCSD_T
    Reference wfn   =      UHF

    Nuclear Rep. energy (wfn)                =   26.030330208281640
    SCF energy          (wfn)                = -150.867339486692799
    Reference energy    (file100)            = -150.867339486694959
    CCSD energy         (file100)            =   -0.439899764417460
    Total CCSD energy   (file100)            = -151.307239251112406

    Number of ijk index combinations:
    Spin Case AAA:                                  56
    Spin Case BBB:                                  20
    Spin Case AAB:                                 168
    Spin Case ABB:                                 120
    AAA (T) energy                             =   -0.000410626849919
    BBB (T) energy                             =   -0.000234156848910
    AAB (T) energy                             =   -0.006917354405299
    ABB (T) energy                             =   -0.005247368506751
    (T) energy                                   =   -0.012809506610878
      * CCSD(T) total energy                     = -151.320048757723299

Stephenergy -151.3200487577233
    Psi4 stopped on: Wednesday, 10 March 2021 09:18AM
    Psi4 wall time for execution: 0:01:38.28

*** Psi4 exiting successfully. Buy a developer a beer!
