
    -----------------------------------------------------------------------
          Psi4: An Open-Source Ab Initio Electronic Structure Package
                               Psi4 1.3.2 release

                         Git: Rev {HEAD} ecbda83 


    R. M. Parrish, L. A. Burns, D. G. A. Smith, A. C. Simmonett,
    A. E. DePrince III, E. G. Hohenstein, U. Bozkaya, A. Yu. Sokolov,
    R. Di Remigio, R. M. Richard, J. F. Gonthier, A. M. James,
    H. R. McAlexander, A. Kumar, M. Saitow, X. Wang, B. P. Pritchard,
    P. Verma, H. F. Schaefer III, K. Patkowski, R. A. King, E. F. Valeev,
    F. A. Evangelista, J. M. Turney, T. D. Crawford, and C. D. Sherrill,
    J. Chem. Theory Comput. 13(7) pp 3185--3197 (2017).
    (doi: 10.1021/acs.jctc.7b00174)


                         Additional Contributions by
    P. Kraus, H. Kruse, M. H. Lechner, M. C. Schieber, R. A. Shaw,
    A. Alenaizan, R. Galvelis, Z. L. Glick, S. Lehtola, and J. P. Misiewicz

    -----------------------------------------------------------------------


    Psi4 started on: Monday, 08 March 2021 05:19PM

    Process ID: 28798
    Host:       c2-1.compute.lan
    PSIDATADIR: /apps/gb/PSI4/1.3.2/share/psi4
    Memory:     500.0 MiB
    Threads:    12
    
  ==> Input File <==

--------------------------------------------------------------------------
memory 4 GB

molecule  {
0 3
O    0.000000000000    0.000000000000    1.254673970673
H    0.000000000000   -0.761471759232    1.844553051273
H   -0.000000000000    0.761471759232    1.844553051273
O    0.000000000000    0.000000000000   -1.487121193127
}
set {
basis aug-cc-pvtz
reference uhf
e_convergence 10
scf_type pk
freeze_core true
}

set ccenergy {
e_convergence 10
r_convergence 10
}

e = energy('ccsd(t)')

print_out('Stephenergy {}'.format(e))

--------------------------------------------------------------------------

  Memory set to   3.725 GiB by Python driver.

*** tstart() called on c2-1.compute.lan
*** at Mon Mar  8 17:19:06 2021

   => Loading Basis Set <=

    Name: AUG-CC-PVTZ
    Role: ORBITAL
    Keyword: BASIS
    atoms 1, 4 entry O          line   327 file /apps/gb/PSI4/1.3.2/share/psi4/basis/aug-cc-pvtz.gbs 
    atoms 2-3  entry H          line    36 file /apps/gb/PSI4/1.3.2/share/psi4/basis/aug-cc-pvtz.gbs 


         ---------------------------------------------------------
                                   SCF
               by Justin Turney, Rob Parrish, Andy Simmonett
                          and Daniel G. A. Smith
                              UHF Reference
                       12 Threads,   3814 MiB Core
         ---------------------------------------------------------

  ==> Geometry <==

    Molecular point group: c2v
    Full point group: C2v

    Geometry (in Angstrom), charge = 0, multiplicity = 3:

       Center              X                  Y                   Z               Mass       
    ------------   -----------------  -----------------  -----------------  -----------------
         O            0.000000000000     0.000000000000     1.254673970673    15.994914619570
         H            0.000000000000    -0.761471759232     1.844553051273     1.007825032230
         H           -0.000000000000     0.761471759232     1.844553051273     1.007825032230
         O            0.000000000000     0.000000000000    -1.487121193127    15.994914619570

  Running in c2v symmetry.

  Rotational constants: A =     14.42360  B =      0.25007  C =      0.24581 [cm^-1]
  Rotational constants: A = 432408.73659  B =   7497.03396  C =   7369.26678 [MHz]
  Nuclear repulsion =   23.967271107878894

  Charge       = 0
  Multiplicity = 3
  Electrons    = 18
  Nalpha       = 10
  Nbeta        = 8

  ==> Algorithm <==

  SCF Algorithm Type is PK.
  DIIS enabled.
  MOM disabled.
  Fractional occupation disabled.
  Guess Type is SAD.
  Energy threshold   = 1.00e-10
  Density threshold  = 1.00e-08
  Integral threshold = 0.00e+00

  ==> Primary Basis <==

  Basis Set: AUG-CC-PVTZ
    Blend: AUG-CC-PVTZ
    Number of shells: 46
    Number of basis function: 138
    Number of Cartesian functions: 160
    Spherical Harmonics?: true
    Max angular momentum: 3

  ==> Pre-Iterations <==

   -------------------------------------------------------
    Irrep   Nso     Nmo     Nalpha   Nbeta   Ndocc  Nsocc
   -------------------------------------------------------
     A1        54      54       0       0       0       0
     A2        17      17       0       0       0       0
     B1        29      29       0       0       0       0
     B2        38      38       0       0       0       0
   -------------------------------------------------------
    Total     138     138      10       8       8       2
   -------------------------------------------------------

  ==> Integral Setup <==

  Using in-core PK algorithm.
   Calculation information:
      Number of atoms:                   4
      Number of AO shells:              46
      Number of primitives:             82
      Number of atomic orbitals:       160
      Number of basis functions:       138

      Integral cutoff                 1.00e-12
      Number of threads:                12

  Performing in-core PK
  Using 91996872 doubles for integral storage.
  We computed 912516 shell quartets total.
  Whereas there are 584821 unique shell quartets.
    56.03 percent of shell quartets recomputed by reordering.

  ==> DiskJK: Disk-Based J/K Matrices <==

    J tasked:                  Yes
    K tasked:                  Yes
    wK tasked:                  No
    Memory [MiB]:             2861
    Schwarz Cutoff:          1E-12

    OpenMP threads:             12

  Minimum eigenvalue in the overlap matrix is 3.2158005126E-04.
  Using Symmetric Orthogonalization.

  SCF Guess: Superposition of Atomic Densities via on-the-fly atomic UHF.

  ==> Iterations <==

                        Total Energy        Delta E     RMS |[F,P]|

   @UHF iter SAD:  -149.38052924179507   -1.49381e+02   0.00000e+00 
   @UHF iter   1:  -150.76943761958717   -1.38891e+00   6.68018e-03 DIIS
   @UHF iter   2:  -150.84046415637127   -7.10265e-02   4.24465e-03 DIIS
   @UHF iter   3:  -150.87169122928350   -3.12271e-02   5.63804e-04 DIIS
   @UHF iter   4:  -150.87310711160575   -1.41588e-03   1.70736e-04 DIIS
   @UHF iter   5:  -150.87324223420336   -1.35123e-04   6.96553e-05 DIIS
   @UHF iter   6:  -150.87327517571137   -3.29415e-05   2.09364e-05 DIIS
   @UHF iter   7:  -150.87327829451692   -3.11881e-06   5.41700e-06 DIIS
   @UHF iter   8:  -150.87327852361037   -2.29093e-07   1.54168e-06 DIIS
   @UHF iter   9:  -150.87327854191454   -1.83042e-08   4.07833e-07 DIIS
   @UHF iter  10:  -150.87327854330042   -1.38587e-09   1.99358e-07 DIIS
   @UHF iter  11:  -150.87327854374547   -4.45056e-10   7.39528e-08 DIIS
   @UHF iter  12:  -150.87327854380590   -6.04246e-11   1.57011e-08 DIIS
   @UHF iter  13:  -150.87327854380794   -2.04636e-12   4.59525e-09 DIIS
  Energy and wave function converged.


  ==> Post-Iterations <==

   @Spin Contamination Metric:   9.552109037E-03
   @S^2 Expected:                2.000000000E+00
   @S^2 Observed:                2.009552109E+00
   @S   Expected:                1.000000000E+00
   @S   Observed:                1.000000000E+00

    Orbital Energies [Eh]
    ---------------------

    Alpha Occupied:                                                       

       1A1   -20.683858     2A1   -20.571541     3A1    -1.393400  
       4A1    -1.354556     1B2    -0.718119     5A1    -0.688056  
       1B1    -0.684650     6A1    -0.585790     2B2    -0.585658  
       2B1    -0.513979  

    Alpha Virtual:                                                        

       7A1     0.029546     3B2     0.047653     8A1     0.118194  
       3B1     0.154348     9A1     0.159391     4B2     0.180167  
       5B2     0.187408     4B1     0.192899    10A1     0.198151  
       1A2     0.263612     6B2     0.264472    11A1     0.265698  
      12A1     0.314449     5B1     0.327241    13A1     0.375999  
       7B2     0.380338    14A1     0.449449     8B2     0.463954  
       9B2     0.600160     6B1     0.644433    15A1     0.647819  
       2A2     0.658262    16A1     0.667097    17A1     0.700801  
       3A2     0.721791    10B2     0.724945     7B1     0.769473  
      18A1     0.792771    19A1     0.820858     8B1     0.837441  
      20A1     0.859852     9B1     0.901420    11B2     0.918471  
       4A2     0.924910    12B2     0.946722    13B2     0.981848  
      21A1     0.991902    10B1     1.017021    22A1     1.046631  
      14B2     1.051187    11B1     1.124281     5A2     1.176424  
      23A1     1.191646    15B2     1.202064    16B2     1.332140  
      24A1     1.334926    25A1     1.456499     6A2     1.506740  
      12B1     1.594770    26A1     1.670643    27A1     1.813231  
      17B2     1.820272    18B2     1.974586    28A1     2.041162  
      13B1     2.048658    19B2     2.054629     7A2     2.058897  
      14B1     2.059387    29A1     2.078556    30A1     2.115187  
       8A2     2.119768    20B2     2.139355    31A1     2.141746  
      15B1     2.149131    32A1     2.253637    21B2     2.275817  
      16B1     2.302451     9A2     2.311173    17B1     2.439828  
      33A1     2.476555    22B2     2.482594    34A1     2.495010  
      35A1     2.699133    18B1     2.717724    23B2     2.723041  
      36A1     2.845994    24B2     2.861286    10A2     2.879007  
      25B2     3.691375    37A1     3.751423    11A2     4.011431  
      19B1     4.077760    20B1     4.100310    38A1     4.143638  
      26B2     4.185002    27B2     4.280588    21B1     4.289843  
      39A1     4.357549    12A2     4.381710    40A1     4.430842  
      22B1     4.453306    28B2     4.513324    41A1     4.791785  
      29B2     4.834236    30B2     5.137106    13A2     5.139799  
      31B2     5.245863    42A1     5.333612    23B1     5.510403  
      43A1     5.685655    44A1     6.196450    24B1     6.391301  
      14A2     6.411442    45A1     6.412191    32B2     6.424646  
      25B1     6.436367    33B2     6.493722    46A1     6.543656  
      34B2     6.581914    26B1     6.719418    27B1     6.904638  
      47A1     6.908529    15A2     6.925331    48A1     6.945003  
      35B2     6.987759    49A1     7.045859    28B1     7.132981  
      29B1     7.278026    16A2     7.301775    36B2     7.305702  
      17A2     7.351935    50A1     7.436091    51A1     7.538686  
      52A1     7.907668    37B2     7.909255    38B2     8.796312  
      53A1     8.894073    54A1    15.724393  

    Beta Occupied:                                                        

       1A1   -20.604970     2A1   -20.571027     3A1    -1.353812  
       4A1    -1.050561     1B2    -0.717752     5A1    -0.587824  
       1B1    -0.513245     2B2    -0.495051  

    Beta Virtual:                                                         

       6A1     0.029384     3B2     0.047736     2B1     0.086959  
       7A1     0.092126     8A1     0.141455     9A1     0.166930  
       3B1     0.170844     4B2     0.180764     5B2     0.191050  
      10A1     0.225616     4B1     0.253612     1A2     0.263614  
       6B2     0.264906    11A1     0.288868    12A1     0.316871  
       5B1     0.328508     7B2     0.380508    13A1     0.386638  
      14A1     0.450526     8B2     0.464168     9B2     0.601824  
      15A1     0.660073     6B1     0.668228     2A2     0.672595  
      16A1     0.674239    17A1     0.718038     3A2     0.722304  
      10B2     0.737090     7B1     0.781095    18A1     0.807478  
       8B1     0.846784    19A1     0.851244     4A2     0.925335  
      20A1     0.928268    11B2     0.936441    12B2     0.953353  
      13B2     0.985795     9B1     0.988131    21A1     0.998836  
      14B2     1.052331    22A1     1.053407    10B1     1.061887  
      11B1     1.141632     5A2     1.176628    23A1     1.193088  
      15B2     1.204769    16B2     1.334601    24A1     1.391546  
      25A1     1.494016     6A2     1.507193    12B1     1.596775  
      26A1     1.701757    27A1     1.818675    17B2     1.820596  
      18B2     1.976074    28A1     2.070367    13B1     2.071321  
      19B2     2.072028     7A2     2.083607    29A1     2.098361  
      14B1     2.101694    30A1     2.155159    20B2     2.186940  
       8A2     2.202879    31A1     2.210037    15B1     2.261426  
       9A2     2.311304    32A1     2.312837    16B1     2.317342  
      21B2     2.325798    17B1     2.448773    33A1     2.482361  
      22B2     2.485442    34A1     2.529885    35A1     2.705729  
      18B1     2.719541    23B2     2.723959    36A1     2.858956  
      24B2     2.861410    10A2     2.879045    25B2     3.692334  
      37A1     3.751558    11A2     4.011463    19B1     4.079961  
      38A1     4.175247    26B2     4.219442    20B1     4.259739  
      27B2     4.292539    21B1     4.295285    12A2     4.381826  
      39A1     4.425582    22B1     4.458792    40A1     4.477616  
      28B2     4.513423    41A1     4.803517    29B2     4.834408  
      30B2     5.137303    13A2     5.139884    31B2     5.246356  
      42A1     5.334252    23B1     5.510527    43A1     5.690718  
      44A1     6.197978    24B1     6.486348    14A2     6.488267  
      32B2     6.488398    45A1     6.495308    25B1     6.500485  
      33B2     6.528203    34B2     6.611373    46A1     6.615013  
      26B1     6.727542    47A1     6.963624    15A2     7.038876  
      48A1     7.042986    27B1     7.087063    35B2     7.099588  
      28B1     7.133476    49A1     7.173203    29B1     7.282197  
      16A2     7.302061    36B2     7.305916    17A2     7.352404  
      50A1     7.438945    51A1     7.539847    52A1     7.908311  
      37B2     7.909641    38B2     8.796720    53A1     8.973118  
      54A1    15.724749  

    Final Occupation by Irrep:
             A1    A2    B1    B2 
    DOCC [     5,    0,    1,    2 ]
    SOCC [     1,    0,    1,    0 ]

  @UHF Final Energy:  -150.87327854380794

   => Energetics <=

    Nuclear Repulsion Energy =             23.9672711078788936
    One-Electron Energy =                -256.0072502983332470
    Two-Electron Energy =                  81.1667006466464045
    Total Energy =                       -150.8732785438079418

  UHF NO Occupations:
  HONO-2 :    5 A1 1.9970477
  HONO-1 :    2 B1 1.0000000
  HONO-0 :    6 A1 1.0000000
  LUNO+0 :    7 A1 0.0029523
  LUNO+1 :    3 B2 0.0018003
  LUNO+2 :    8 A1 0.0000252
  LUNO+3 :    9 A1 0.0000024


Computation Completed


Properties will be evaluated at   0.000000,   0.000000,   0.000000 [a0]

Properties computed using the SCF density matrix

  Nuclear Dipole Moment: [e a0]
     X:     0.0000      Y:     0.0000      Z:     3.4573

  Electronic Dipole Moment: [e a0]
     X:     0.0000      Y:     0.0000      Z:    -2.6188

  Dipole Moment: [e a0]
     X:     0.0000      Y:     0.0000      Z:     0.8385     Total:     0.8385

  Dipole Moment: [D]
     X:     0.0000      Y:     0.0000      Z:     2.1312     Total:     2.1312


*** tstop() called on c2-1.compute.lan at Mon Mar  8 17:19:10 2021
Module time:
	user time   =      43.94 seconds =       0.73 minutes
	system time =       1.85 seconds =       0.03 minutes
	total time  =          4 seconds =       0.07 minutes
Total time:
	user time   =      43.94 seconds =       0.73 minutes
	system time =       1.85 seconds =       0.03 minutes
	total time  =          4 seconds =       0.07 minutes
 MINTS: Wrapper to libmints.
   by Justin Turney

   Calculation information:
      Number of threads:                12
      Number of atoms:                   4
      Number of AO shells:              46
      Number of SO shells:              37
      Number of primitives:             82
      Number of atomic orbitals:       160
      Number of basis functions:       138

      Number of irreps:                  4
      Integral cutoff                 0.00e+00
      Number of functions per irrep: [  54   17   29   38 ]

 OEINTS: Overlap, kinetic, potential, dipole, and quadrupole integrals
         stored in file 35.

      Computing two-electron integrals...done
      Computed 11530652 non-zero two-electron integrals.
        Stored in file 33.


*** tstart() called on c2-1.compute.lan
*** at Mon Mar  8 17:19:13 2021


	Wfn Parameters:
	--------------------
	Wavefunction         = CCSD_T
	Number of irreps     = 4
	Number of MOs        = 138
	Number of active MOs = 136
	AO-Basis             = NONE
	Semicanonical        = false
	Reference            = UHF
	Print Level          = 1

	IRREP	# MOs	# FZDC	# DOCC	# SOCC	# VIRT	# FZVR
	-----	-----	------	------	------	------	------
	 A1	   54	    2	    3	    1	    48	    0
	 A2	   17	    0	    0	    0	    17	    0
	 B1	   29	    0	    1	    1	    27	    0
	 B2	   38	    0	    2	    0	    36	    0
	Transforming integrals...
	IWL integrals will be deleted.
	(OO|OO)...
	Presorting SO-basis two-electron integrals.
	Sorting File: SO Ints (nn|nn) nbuckets = 1
	Transforming the one-electron integrals and constructing Fock matrices
	Starting AA/AB first half-transformation.
	Sorting AA/AB half-transformed integrals.
	Starting BB first half-transformation.
	Sorting BB half-transformed integrals.
	First half integral transformation complete.
	Starting AA second half-transformation.
	Starting AB second half-transformation.
	Starting BB second half-transformation.
	Two-electron integral transformation complete.
	(OO|OV)...
	Starting AA second half-transformation.
	Starting AB second half-transformation.
	Starting BB second half-transformation.
	Two-electron integral transformation complete.
	(OO|VV)...
	Starting AA second half-transformation.
	Starting AB second half-transformation.
	Starting BB second half-transformation.
	Two-electron integral transformation complete.
	(OV|OO)...
	Starting AA/AB first half-transformation.
	Sorting AA/AB half-transformed integrals.
	Starting BB first half-transformation.
	Sorting BB half-transformed integrals.
	First half integral transformation complete.
	Starting AA second half-transformation.
	Starting AB second half-transformation.
	Starting BB second half-transformation.
	Two-electron integral transformation complete.
	(OV|OV)...
	Starting AA second half-transformation.
	Starting AB second half-transformation.
	Starting BB second half-transformation.
	Two-electron integral transformation complete.
	(OV|VV)...
	Starting AA second half-transformation.
	Starting AB second half-transformation.
	Starting BB second half-transformation.
	Two-electron integral transformation complete.
	(VV|OO)...
	Starting AA/AB first half-transformation.
	Sorting AA/AB half-transformed integrals.
	Starting BB first half-transformation.
	Sorting BB half-transformed integrals.
	First half integral transformation complete.
	Starting AA second half-transformation.
	Starting AB second half-transformation.
	Starting BB second half-transformation.
	Two-electron integral transformation complete.
	(VV|OV)...
	Starting AA second half-transformation.
	Starting AB second half-transformation.
	Starting BB second half-transformation.
	Two-electron integral transformation complete.
	(VV|VV)...
	Starting AA second half-transformation.
	Starting AB second half-transformation.
	Starting BB second half-transformation.
	Two-electron integral transformation complete.
	Frozen core energy     =   -126.43176225584199

	Size of irrep 0 of <AB|CD> integrals:      5.040 (MW) /     40.320 (MB)
	Size of irrep 1 of <AB|CD> integrals:      3.197 (MW) /     25.576 (MB)
	Size of irrep 2 of <AB|CD> integrals:      3.640 (MW) /     29.124 (MB)
	Size of irrep 3 of <AB|CD> integrals:      4.783 (MW) /     38.264 (MB)
	Total:                                    16.660 (MW) /    133.283 (MB)

	Size of irrep 0 of <ab|cd> integrals:      5.382 (MW) /     43.059 (MB)
	Size of irrep 1 of <ab|cd> integrals:      3.389 (MW) /     27.114 (MB)
	Size of irrep 2 of <ab|cd> integrals:      3.936 (MW) /     31.490 (MB)
	Size of irrep 3 of <ab|cd> integrals:      5.018 (MW) /     40.141 (MB)
	Total:                                    17.726 (MW) /    141.804 (MB)

	Size of irrep 0 of <Ab|Cd> integrals:     22.024 (MW) /    176.194 (MB)
	Size of irrep 1 of <Ab|Cd> integrals:     13.170 (MW) /    105.357 (MB)
	Size of irrep 2 of <Ab|Cd> integrals:     15.140 (MW) /    121.119 (MB)
	Size of irrep 3 of <Ab|Cd> integrals:     19.598 (MW) /    156.787 (MB)
	Total:                                    69.932 (MW) /    559.457 (MB)

	Size of irrep 0 of <IA|BC> integrals:      1.469 (MW) /     11.748 (MB)
	Size of irrep 1 of <IA|BC> integrals:      0.694 (MW) /      5.550 (MB)
	Size of irrep 2 of <IA|BC> integrals:      0.908 (MW) /      7.266 (MB)
	Size of irrep 3 of <IA|BC> integrals:      1.198 (MW) /      9.588 (MB)
	Total:                                     4.269 (MW) /     34.152 (MB)

	Size of irrep 0 of <ia|bc> integrals:      1.178 (MW) /      9.426 (MB)
	Size of irrep 1 of <ia|bc> integrals:      0.527 (MW) /      4.212 (MB)
	Size of irrep 2 of <ia|bc> integrals:      0.663 (MW) /      5.301 (MB)
	Size of irrep 3 of <ia|bc> integrals:      0.999 (MW) /      7.992 (MB)
	Total:                                     3.366 (MW) /     26.931 (MB)

	Size of irrep 0 of <Ia|Bc> integrals:      1.521 (MW) /     12.164 (MB)
	Size of irrep 1 of <Ia|Bc> integrals:      0.711 (MW) /      5.690 (MB)
	Size of irrep 2 of <Ia|Bc> integrals:      0.949 (MW) /      7.595 (MB)
	Size of irrep 3 of <Ia|Bc> integrals:      1.222 (MW) /      9.775 (MB)
	Total:                                     4.403 (MW) /     35.225 (MB)

	Size of irrep 0 of <iA|bC> integrals:      1.140 (MW) /      9.123 (MB)
	Size of irrep 1 of <iA|bC> integrals:      0.512 (MW) /      4.094 (MB)
	Size of irrep 2 of <iA|bC> integrals:      0.634 (MW) /      5.074 (MB)
	Size of irrep 3 of <iA|bC> integrals:      0.978 (MW) /      7.827 (MB)
	Total:                                     3.265 (MW) /     26.118 (MB)

	Size of irrep 0 of tIjAb amplitudes:       0.084 (MW) /      0.676 (MB)
	Size of irrep 1 of tIjAb amplitudes:       0.022 (MW) /      0.174 (MB)
	Size of irrep 2 of tIjAb amplitudes:       0.039 (MW) /      0.311 (MB)
	Size of irrep 3 of tIjAb amplitudes:       0.062 (MW) /      0.496 (MB)
	Total:                                     0.207 (MW) /      1.657 (MB)

	Nuclear Rep. energy          =     23.96727110787889
	SCF energy                   =   -150.87327854380794
	One-electron energy          =    -85.57512152998007
	Two-electron (AA) energy     =     10.39439267636298
	Two-electron (BB) energy     =      5.48050160931026
	Two-electron (AB) energy     =     21.29143984846050
	Two-electron energy          =     37.16633413413373
	Reference energy             =   -150.87327854380942

*** tstop() called on c2-1.compute.lan at Mon Mar  8 17:19:33 2021
Module time:
	user time   =      87.74 seconds =       1.46 minutes
	system time =      12.43 seconds =       0.21 minutes
	total time  =         20 seconds =       0.33 minutes
Total time:
	user time   =     137.38 seconds =       2.29 minutes
	system time =      14.78 seconds =       0.25 minutes
	total time  =         27 seconds =       0.45 minutes
            **************************
            *                        *
            *        CCENERGY        *
            *                        *
            **************************

    Nuclear Rep. energy (wfn)     =   23.967271107878894
    SCF energy          (wfn)     = -150.873278543807942
    Reference energy    (file100) = -150.873278543809420

    Input parameters:
    -----------------
    Wave function   =     CCSD_T
    Reference wfn   =     UHF
    Brueckner       =     No
    Memory (Mbytes) =     4000.0
    Maxiter         =     50
    R_Convergence   =     1.0e-10
    E_Convergence   =     1.0e-10
    Restart         =     Yes
    DIIS            =     Yes
    AO Basis        =     NONE
    ABCD            =     NEW
    Cache Level     =     2
    Cache Type      =     LRU
    Print Level     =     1
    Num. of threads =     12
    # Amps to Print =     10
    Print MP2 Amps? =     No
    Analyze T2 Amps =     No
    Print Pair Ener =     No
    Local CC        =     No
    SCS-MP2         =     False
    SCSN-MP2        =     False
    SCS-CCSD        =     False

MP2 correlation energy -0.4164908599183111
                Solving CC Amplitude Equations
                ------------------------------
  Iter             Energy              RMS        T1Diag      D1Diag    New D1Diag    D2Diag
  ----     ---------------------    ---------   ----------  ----------  ----------   --------
     0        -0.416490859918311    0.000e+00    0.000000    0.000000    0.000000    0.000000
     1        -0.427227256862325    5.715e-02    0.010627    0.000000    0.000000    0.000000
     2        -0.435345376662024    1.709e-02    0.011123    0.000000    0.000000    0.000000
     3        -0.437508160811732    8.839e-03    0.013065    0.000000    0.000000    0.000000
     4        -0.437381156162329    2.706e-03    0.013484    0.000000    0.000000    0.000000
     5        -0.437371682474437    1.413e-03    0.013685    0.000000    0.000000    0.000000
     6        -0.437401079225433    5.336e-04    0.013714    0.000000    0.000000    0.000000
     7        -0.437404073967003    2.172e-04    0.013709    0.000000    0.000000    0.000000
     8        -0.437404998292388    6.705e-05    0.013704    0.000000    0.000000    0.000000
     9        -0.437405694028791    2.418e-05    0.013704    0.000000    0.000000    0.000000
    10        -0.437404779800158    9.271e-06    0.013704    0.000000    0.000000    0.000000
    11        -0.437404946608082    4.091e-06    0.013703    0.000000    0.000000    0.000000
    12        -0.437404906734135    1.501e-06    0.013704    0.000000    0.000000    0.000000
    13        -0.437404915453846    7.611e-07    0.013704    0.000000    0.000000    0.000000
    14        -0.437404939113597    3.216e-07    0.013704    0.000000    0.000000    0.000000
    15        -0.437404940616069    1.160e-07    0.013704    0.000000    0.000000    0.000000
    16        -0.437404941272782    5.369e-08    0.013704    0.000000    0.000000    0.000000
    17        -0.437404941814878    2.036e-08    0.013704    0.000000    0.000000    0.000000
    18        -0.437404941642283    1.108e-08    0.013704    0.000000    0.000000    0.000000
    19        -0.437404941395022    4.244e-09    0.013704    0.000000    0.000000    0.000000
    20        -0.437404941380493    2.258e-09    0.013704    0.000000    0.000000    0.000000
    21        -0.437404941356590    8.535e-10    0.013704    0.000000    0.000000    0.000000
    22        -0.437404941355634    3.386e-10    0.013704    0.000000    0.000000    0.000000
    23        -0.437404941355192    1.770e-10    0.013704    0.000000    0.000000    0.000000
    24        -0.437404941354984    7.259e-11    0.013704    0.000000    0.000000    0.000000

    Iterations converged.


    Largest TIA Amplitudes:
              5  65        -0.0134423508
              5  67        -0.0111733528
              7  94         0.0105521866
              5  66        -0.0096803854
              3   1         0.0075172585
              4  65        -0.0074983408
              2   3         0.0072082125
              4  66         0.0071768321
              3   5        -0.0055461378
              3   6         0.0054781790

    Largest Tia Amplitudes:
              3  67        -0.0148165047
              2   2         0.0138316006
              3  69        -0.0107749793
              5  96         0.0080268844
              3  66        -0.0080102617
              2   1        -0.0070658591
              2   7         0.0057560418
              2   6        -0.0055012750
              4 109         0.0054096063
              1  25        -0.0053984136

    Largest TIJAB Amplitudes:
      7   4 100  71         0.0141791235
      7   4  55  23        -0.0135857398
      7   2 100  12        -0.0118533126
      4   2  71  12         0.0107161596
      6   5  50   9        -0.0085767429
      7   4  49  23         0.0082527811
      6   5  97  72        -0.0081649113
      7   4  94  71         0.0079146769
      7   4  55   8        -0.0076385089
      7   4 100  82        -0.0074417124

    Largest Tijab Amplitudes:
      5   1  66  56         0.0086604696
      5   1  66  50        -0.0085391356
      5   1  68  56         0.0081666144
      4   3  99  67        -0.0076561647
      5   1  68  50        -0.0074461795
      4   2  99   2         0.0072522426
      4   3  99  73        -0.0072408127
      4   2  99  12         0.0069586114
      4   2 100   9        -0.0067823013
      4   3  51  10        -0.0064423855

    Largest TIjAb Amplitudes:
      6   4  97  99        -0.0219199035
      7   5 100 103        -0.0212696819
      7   5 100 102         0.0193054410
      7   1  55  66        -0.0180110140
      7   5 100  96        -0.0171284995
      7   1  55  68        -0.0168342304
      4   1  23  66        -0.0166083033
      5   3  72  73        -0.0162167648
      4   1  23  68        -0.0154755847
      7   5  55  56        -0.0145309651

    SCF energy       (wfn)                    = -150.873278543807942
    Reference energy (file100)                = -150.873278543809420

    Opposite-spin MP2 correlation energy      =   -0.314579887905021
    Same-spin MP2 correlation energy          =   -0.101910972013290
    MP2 correlation energy                    =   -0.416490859918311
      * MP2 total energy                      = -151.289769403727718

    Opposite-spin CCSD correlation energy     =   -0.342245954402637
    Same-spin CCSD correlation energy         =   -0.095158986952347
    CCSD correlation energy                   =   -0.437404941354984
      * CCSD total energy                     = -151.310683485164390

            **************************
            *                        *
            *        CCTRIPLES       *
            *                        *
            **************************


    Wave function   =    CCSD_T
    Reference wfn   =      UHF

    Nuclear Rep. energy (wfn)                =   23.967271107878894
    SCF energy          (wfn)                = -150.873278543807942
    Reference energy    (file100)            = -150.873278543809420
    CCSD energy         (file100)            =   -0.437404941354984
    Total CCSD energy   (file100)            = -151.310683485164390

    Number of ijk index combinations:
    Spin Case AAA:                                  56
    Spin Case BBB:                                  20
    Spin Case AAB:                                 168
    Spin Case ABB:                                 120
    AAA (T) energy                             =   -0.000396549366886
    BBB (T) energy                             =   -0.000203098693833
    AAB (T) energy                             =   -0.006723839528842
    ABB (T) energy                             =   -0.004999751630150
    (T) energy                                   =   -0.012323239219711
      * CCSD(T) total energy                     = -151.323006724384129

Stephenergy -151.32300672438413
    Psi4 stopped on: Monday, 08 March 2021 05:20PM
    Psi4 wall time for execution: 0:01:15.77

*** Psi4 exiting successfully. Buy a developer a beer!
