
    -----------------------------------------------------------------------
          Psi4: An Open-Source Ab Initio Electronic Structure Package
                               Psi4 1.3.2 release

                         Git: Rev {HEAD} ecbda83 


    R. M. Parrish, L. A. Burns, D. G. A. Smith, A. C. Simmonett,
    A. E. DePrince III, E. G. Hohenstein, U. Bozkaya, A. Yu. Sokolov,
    R. Di Remigio, R. M. Richard, J. F. Gonthier, A. M. James,
    H. R. McAlexander, A. Kumar, M. Saitow, X. Wang, B. P. Pritchard,
    P. Verma, H. F. Schaefer III, K. Patkowski, R. A. King, E. F. Valeev,
    F. A. Evangelista, J. M. Turney, T. D. Crawford, and C. D. Sherrill,
    J. Chem. Theory Comput. 13(7) pp 3185--3197 (2017).
    (doi: 10.1021/acs.jctc.7b00174)


                         Additional Contributions by
    P. Kraus, H. Kruse, M. H. Lechner, M. C. Schieber, R. A. Shaw,
    A. Alenaizan, R. Galvelis, Z. L. Glick, S. Lehtola, and J. P. Misiewicz

    -----------------------------------------------------------------------


    Psi4 started on: Wednesday, 10 March 2021 09:34AM

    Process ID: 17611
    Host:       c5-3.compute.lan
    PSIDATADIR: /apps/gb/PSI4/1.3.2/share/psi4
    Memory:     500.0 MiB
    Threads:    12
    
  ==> Input File <==

--------------------------------------------------------------------------
memory 4 GB

molecule  {
0 3
O    0.000000000000    0.000000000000   -1.548221819245
H    0.000000000000   -0.752326346800   -0.945473623663
H   -0.000000000000    0.752326346800   -0.945473623663
O    0.000000000000    0.000000000000    1.667368686596
}
set {
basis aug-cc-pvtz
reference uhf
e_convergence 10
scf_type pk
freeze_core true
}

set ccenergy {
e_convergence 10
r_convergence 10
}

e = energy('ccsd(t)')

print_out('Stephenergy {}'.format(e))

--------------------------------------------------------------------------

  Memory set to   3.725 GiB by Python driver.

*** tstart() called on c5-3.compute.lan
*** at Wed Mar 10 09:34:27 2021

   => Loading Basis Set <=

    Name: AUG-CC-PVTZ
    Role: ORBITAL
    Keyword: BASIS
    atoms 1, 4 entry O          line   327 file /apps/gb/PSI4/1.3.2/share/psi4/basis/aug-cc-pvtz.gbs 
    atoms 2-3  entry H          line    36 file /apps/gb/PSI4/1.3.2/share/psi4/basis/aug-cc-pvtz.gbs 


         ---------------------------------------------------------
                                   SCF
               by Justin Turney, Rob Parrish, Andy Simmonett
                          and Daniel G. A. Smith
                              UHF Reference
                       12 Threads,   3814 MiB Core
         ---------------------------------------------------------

  ==> Geometry <==

    Molecular point group: c2v
    Full point group: C2v

    Geometry (in Angstrom), charge = 0, multiplicity = 3:

       Center              X                  Y                   Z               Mass       
    ------------   -----------------  -----------------  -----------------  -----------------
         O           -0.000000000000     0.000000000000    -1.548221819245    15.994914619570
         H            0.000000000000    -0.752326346800    -0.945473623663     1.007825032230
         H           -0.000000000000     0.752326346800    -0.945473623663     1.007825032230
         O           -0.000000000000     0.000000000000     1.667368686596    15.994914619570

  Running in c2v symmetry.

  Rotational constants: A =     14.77641  B =      0.19924  C =      0.19659 [cm^-1]
  Rotational constants: A = 442985.50927  B =   5973.09411  C =   5893.62609 [MHz]
  Nuclear repulsion =   22.780884999449370

  Charge       = 0
  Multiplicity = 3
  Electrons    = 18
  Nalpha       = 10
  Nbeta        = 8

  ==> Algorithm <==

  SCF Algorithm Type is PK.
  DIIS enabled.
  MOM disabled.
  Fractional occupation disabled.
  Guess Type is SAD.
  Energy threshold   = 1.00e-10
  Density threshold  = 1.00e-08
  Integral threshold = 0.00e+00

  ==> Primary Basis <==

  Basis Set: AUG-CC-PVTZ
    Blend: AUG-CC-PVTZ
    Number of shells: 46
    Number of basis function: 138
    Number of Cartesian functions: 160
    Spherical Harmonics?: true
    Max angular momentum: 3

  ==> Pre-Iterations <==

   -------------------------------------------------------
    Irrep   Nso     Nmo     Nalpha   Nbeta   Ndocc  Nsocc
   -------------------------------------------------------
     A1        54      54       0       0       0       0
     A2        17      17       0       0       0       0
     B1        29      29       0       0       0       0
     B2        38      38       0       0       0       0
   -------------------------------------------------------
    Total     138     138      10       8       8       2
   -------------------------------------------------------

  ==> Integral Setup <==

  Using in-core PK algorithm.
   Calculation information:
      Number of atoms:                   4
      Number of AO shells:              46
      Number of primitives:             82
      Number of atomic orbitals:       160
      Number of basis functions:       138

      Integral cutoff                 1.00e-12
      Number of threads:                12

  Performing in-core PK
  Using 91996872 doubles for integral storage.
  We computed 922679 shell quartets total.
  Whereas there are 584821 unique shell quartets.
    57.77 percent of shell quartets recomputed by reordering.

  ==> DiskJK: Disk-Based J/K Matrices <==

    J tasked:                  Yes
    K tasked:                  Yes
    wK tasked:                  No
    Memory [MiB]:             2861
    Schwarz Cutoff:          1E-12

    OpenMP threads:             12

  Minimum eigenvalue in the overlap matrix is 3.6925168117E-04.
  Using Symmetric Orthogonalization.

  SCF Guess: Superposition of Atomic Densities via on-the-fly atomic UHF.

  ==> Iterations <==

                        Total Energy        Delta E     RMS |[F,P]|

   @UHF iter SAD:  -149.38829877513922   -1.49388e+02   0.00000e+00 
   @UHF iter   1:  -150.76539096888334   -1.37709e+00   6.91677e-03 DIIS
   @UHF iter   2:  -150.83721694966056   -7.18260e-02   4.49373e-03 DIIS
   @UHF iter   3:  -150.87149650166526   -3.42796e-02   5.38073e-04 DIIS
   @UHF iter   4:  -150.87261812851875   -1.12163e-03   1.78264e-04 DIIS
   @UHF iter   5:  -150.87274533710703   -1.27209e-04   7.02303e-05 DIIS
   @UHF iter   6:  -150.87277835347749   -3.30164e-05   2.00023e-05 DIIS
   @UHF iter   7:  -150.87278120846554   -2.85499e-06   4.74603e-06 DIIS
   @UHF iter   8:  -150.87278138389047   -1.75425e-07   1.21214e-06 DIIS
   @UHF iter   9:  -150.87278139504014   -1.11497e-08   2.66563e-07 DIIS
   @UHF iter  10:  -150.87278139555946   -5.19321e-10   1.07510e-07 DIIS
   @UHF iter  11:  -150.87278139567178   -1.12323e-10   5.13623e-08 DIIS
   @UHF iter  12:  -150.87278139570338   -3.16049e-11   1.04451e-08 DIIS
   @UHF iter  13:  -150.87278139570469   -1.30740e-12   3.79362e-09 DIIS
  Energy and wave function converged.


  ==> Post-Iterations <==

   @Spin Contamination Metric:   9.140716555E-03
   @S^2 Expected:                2.000000000E+00
   @S^2 Observed:                2.009140717E+00
   @S   Expected:                1.000000000E+00
   @S   Observed:                1.000000000E+00

    Orbital Energies [Eh]
    ---------------------

    Alpha Occupied:                                                       

       1A1   -20.731022     2A1   -20.562237     3A1    -1.440414  
       4A1    -1.345025     1B2    -0.731871     1B1    -0.731238  
       2B2    -0.704037     5A1    -0.636362     6A1    -0.578650  
       2B1    -0.504111  

    Alpha Virtual:                                                        

       7A1     0.035803     3B2     0.048600     3B1     0.131487  
       8A1     0.132922     9A1     0.150553     4B2     0.158831  
       4B1     0.183691     5B2     0.185465    10A1     0.190358  
      11A1     0.258108     6B2     0.261084     1A2     0.265924  
      12A1     0.274612     5B1     0.323296    13A1     0.376553  
       7B2     0.384534    14A1     0.454036     8B2     0.473197  
       2A2     0.610392    15A1     0.623988     9B2     0.624371  
      16A1     0.631102     6B1     0.646162    17A1     0.717257  
       3A2     0.731682    10B2     0.743608     7B1     0.752783  
      18A1     0.793450     8B1     0.832893    11B2     0.850335  
      19A1     0.850687     9B1     0.918301     4A2     0.941076  
      12B2     0.942669    20A1     0.957888    21A1     0.965017  
      10B1     0.981965    13B2     0.990285    22A1     1.053285  
      14B2     1.057524    11B1     1.144228     5A2     1.190251  
      23A1     1.195080    24A1     1.255476    15B2     1.272062  
      16B2     1.301903    25A1     1.392550     6A2     1.509706  
      12B1     1.587959    26A1     1.697422    27A1     1.834659  
      17B2     1.841592    18B2     1.966760    13B1     1.977047  
      19B2     2.001247    28A1     2.005555     7A2     2.015702  
      14B1     2.032821    29A1     2.041046     8A2     2.055965  
      30A1     2.092371    20B2     2.100300    15B1     2.138986  
      31A1     2.181905    16B1     2.294604    21B2     2.304388  
       9A2     2.336977    32A1     2.385360    33A1     2.401228  
      34A1     2.486112    22B2     2.511645    17B1     2.535496  
      35A1     2.588506    23B2     2.694731    18B1     2.723793  
      36A1     2.831079    10A2     2.889650    24B2     2.910122  
      25B2     3.668414    37A1     3.744474    11A2     4.038341  
      19B1     4.052529    26B2     4.103900    20B1     4.107275  
      38A1     4.193328    21B1     4.273803    27B2     4.277862  
      39A1     4.336100    12A2     4.384648    22B1     4.418617  
      40A1     4.468146    28B2     4.535411    41A1     4.758068  
      29B2     4.854498    13A2     5.142839    30B2     5.172001  
      31B2     5.241159    42A1     5.367599    23B1     5.524941  
      43A1     5.667729    44A1     6.204718    24B1     6.313443  
      32B2     6.315210    14A2     6.378483    45A1     6.388086  
      25B1     6.411744    33B2     6.479424    46A1     6.501280  
      34B2     6.536278    26B1     6.756702    15A2     6.820585  
      47A1     6.822504    48A1     6.934544    27B1     6.936873  
      35B2     6.972433    49A1     7.038072    28B1     7.135922  
      29B1     7.262225    16A2     7.315861    36B2     7.344558  
      17A2     7.358117    50A1     7.374588    51A1     7.551290  
      52A1     7.889634    37B2     7.938369    53A1     8.669271  
      38B2     8.808147    54A1    15.680571  

    Beta Occupied:                                                        

       1A1   -20.652499     2A1   -20.562298     3A1    -1.345339  
       4A1    -1.098250     1B2    -0.704306     5A1    -0.586839  
       6A1    -0.538942     1B1    -0.504074  

    Beta Virtual:                                                         

       2B2     0.033957     7A1     0.037013     2B1     0.048410  
       3B2     0.069547     8A1     0.138753     9A1     0.153053  
       3B1     0.160996     4B2     0.180052    10A1     0.190738  
       5B2     0.224821     4B1     0.225796     6B2     0.264479  
       1A2     0.266398    11A1     0.266819    12A1     0.277229  
       5B1     0.324539    13A1     0.380072     7B2     0.391497  
      14A1     0.455514     8B2     0.473665     9B2     0.626184  
      15A1     0.633167     2A2     0.642391    16A1     0.656514  
       6B1     0.657166    17A1     0.718359     3A2     0.732940  
      10B2     0.756071     7B1     0.756139    18A1     0.807536  
      19A1     0.856449     8B1     0.910942     9B1     0.935758  
      11B2     0.940677     4A2     0.943237    12B2     0.949958  
      20A1     0.960628    21A1     0.969642    13B2     1.024581  
      10B1     1.033151    22A1     1.054464    14B2     1.063332  
      11B1     1.153870     5A2     1.191180    23A1     1.199150  
      15B2     1.272249    24A1     1.294135    16B2     1.319741  
      25A1     1.424571     6A2     1.509943    12B1     1.588218  
      26A1     1.714912    27A1     1.836977    17B2     1.842822  
      18B2     1.978379    13B1     2.014760    19B2     2.027854  
      28A1     2.030542    14B1     2.056994     7A2     2.058241  
      29A1     2.101504    20B2     2.152652    30A1     2.180882  
       8A2     2.184645    15B1     2.200598    31A1     2.222869  
      16B1     2.302349    21B2     2.340804     9A2     2.341362  
      32A1     2.390158    33A1     2.423698    34A1     2.487970  
      22B2     2.518616    17B1     2.540404    35A1     2.591290  
      23B2     2.695103    18B1     2.723943    36A1     2.831783  
      10A2     2.889703    24B2     2.911946    25B2     3.668638  
      37A1     3.744659    11A2     4.038472    19B1     4.104016  
      38A1     4.203844    20B1     4.226978    26B2     4.256114  
      21B1     4.274253    27B2     4.293829    39A1     4.349506  
      12A2     4.384716    22B1     4.419172    40A1     4.491634  
      28B2     4.536357    41A1     4.758677    29B2     4.854878  
      13A2     5.142878    30B2     5.172024    31B2     5.241255  
      42A1     5.368071    23B1     5.524944    43A1     5.668045  
      44A1     6.208691    24B1     6.422181    32B2     6.423701  
      14A2     6.455019    45A1     6.461568    25B1     6.466184  
      33B2     6.506988    46A1     6.548364    34B2     6.565428  
      26B1     6.764130    47A1     6.936645    15A2     7.009305  
      48A1     7.012565    27B1     7.042688    35B2     7.081259  
      49A1     7.115955    28B1     7.137011    29B1     7.262223  
      16A2     7.315904    36B2     7.345870    17A2     7.358237  
      50A1     7.375929    51A1     7.552708    52A1     7.889817  
      37B2     7.938358    53A1     8.751958    38B2     8.808043  
      54A1    15.680572  

    Final Occupation by Irrep:
             A1    A2    B1    B2 
    DOCC [     6,    0,    1,    1 ]
    SOCC [     0,    0,    1,    1 ]

  @UHF Final Energy:  -150.87278139570469

   => Energetics <=

    Nuclear Repulsion Energy =             22.7808849994493698
    One-Electron Energy =                -253.3498201230219422
    Two-Electron Energy =                  79.6961537278678804
    Total Energy =                       -150.8727813957046919

  UHF NO Occupations:
  HONO-2 :    6 A1 1.9970788
  HONO-1 :    2 B2 1.0000000
  HONO-0 :    2 B1 1.0000000
  LUNO+0 :    7 A1 0.0029212
  LUNO+1 :    8 A1 0.0016507
  LUNO+2 :    9 A1 0.0000024
  LUNO+3 :   10 A1 0.0000010


Computation Completed


Properties will be evaluated at   0.000000,   0.000000,   0.000000 [a0]

Properties computed using the SCF density matrix

  Nuclear Dipole Moment: [e a0]
     X:    -0.0000      Y:     0.0000      Z:    -1.7721

  Electronic Dipole Moment: [e a0]
     X:     0.0000      Y:     0.0000      Z:     2.6205

  Dipole Moment: [e a0]
     X:    -0.0000      Y:     0.0000      Z:     0.8483     Total:     0.8483

  Dipole Moment: [D]
     X:    -0.0000      Y:     0.0000      Z:     2.1562     Total:     2.1562


*** tstop() called on c5-3.compute.lan at Wed Mar 10 09:34:34 2021
Module time:
	user time   =      53.63 seconds =       0.89 minutes
	system time =       1.57 seconds =       0.03 minutes
	total time  =          7 seconds =       0.12 minutes
Total time:
	user time   =      53.63 seconds =       0.89 minutes
	system time =       1.57 seconds =       0.03 minutes
	total time  =          7 seconds =       0.12 minutes
 MINTS: Wrapper to libmints.
   by Justin Turney

   Calculation information:
      Number of threads:                12
      Number of atoms:                   4
      Number of AO shells:              46
      Number of SO shells:              37
      Number of primitives:             82
      Number of atomic orbitals:       160
      Number of basis functions:       138

      Number of irreps:                  4
      Integral cutoff                 0.00e+00
      Number of functions per irrep: [  54   17   29   38 ]

 OEINTS: Overlap, kinetic, potential, dipole, and quadrupole integrals
         stored in file 35.

      Computing two-electron integrals...done
      Computed 11523909 non-zero two-electron integrals.
        Stored in file 33.


*** tstart() called on c5-3.compute.lan
*** at Wed Mar 10 09:34:36 2021


	Wfn Parameters:
	--------------------
	Wavefunction         = CCSD_T
	Number of irreps     = 4
	Number of MOs        = 138
	Number of active MOs = 136
	AO-Basis             = NONE
	Semicanonical        = false
	Reference            = UHF
	Print Level          = 1

	IRREP	# MOs	# FZDC	# DOCC	# SOCC	# VIRT	# FZVR
	-----	-----	------	------	------	------	------
	 A1	   54	    2	    4	    0	    48	    0
	 A2	   17	    0	    0	    0	    17	    0
	 B1	   29	    0	    1	    1	    27	    0
	 B2	   38	    0	    1	    1	    36	    0
	Transforming integrals...
	IWL integrals will be deleted.
	(OO|OO)...
	Presorting SO-basis two-electron integrals.
	Sorting File: SO Ints (nn|nn) nbuckets = 1
	Transforming the one-electron integrals and constructing Fock matrices
	Starting AA/AB first half-transformation.
	Sorting AA/AB half-transformed integrals.
	Starting BB first half-transformation.
	Sorting BB half-transformed integrals.
	First half integral transformation complete.
	Starting AA second half-transformation.
	Starting AB second half-transformation.
	Starting BB second half-transformation.
	Two-electron integral transformation complete.
	(OO|OV)...
	Starting AA second half-transformation.
	Starting AB second half-transformation.
	Starting BB second half-transformation.
	Two-electron integral transformation complete.
	(OO|VV)...
	Starting AA second half-transformation.
	Starting AB second half-transformation.
	Starting BB second half-transformation.
	Two-electron integral transformation complete.
	(OV|OO)...
	Starting AA/AB first half-transformation.
	Sorting AA/AB half-transformed integrals.
	Starting BB first half-transformation.
	Sorting BB half-transformed integrals.
	First half integral transformation complete.
	Starting AA second half-transformation.
	Starting AB second half-transformation.
	Starting BB second half-transformation.
	Two-electron integral transformation complete.
	(OV|OV)...
	Starting AA second half-transformation.
	Starting AB second half-transformation.
	Starting BB second half-transformation.
	Two-electron integral transformation complete.
	(OV|VV)...
	Starting AA second half-transformation.
	Starting AB second half-transformation.
	Starting BB second half-transformation.
	Two-electron integral transformation complete.
	(VV|OO)...
	Starting AA/AB first half-transformation.
	Sorting AA/AB half-transformed integrals.
	Starting BB first half-transformation.
	Sorting BB half-transformed integrals.
	First half integral transformation complete.
	Starting AA second half-transformation.
	Starting AB second half-transformation.
	Starting BB second half-transformation.
	Two-electron integral transformation complete.
	(VV|OV)...
	Starting AA second half-transformation.
	Starting AB second half-transformation.
	Starting BB second half-transformation.
	Two-electron integral transformation complete.
	(VV|VV)...
	Starting AA second half-transformation.
	Starting AB second half-transformation.
	Starting BB second half-transformation.
	Two-electron integral transformation complete.
	Frozen core energy     =   -125.79311823443378

	Size of irrep 0 of <AB|CD> integrals:      5.040 (MW) /     40.320 (MB)
	Size of irrep 1 of <AB|CD> integrals:      3.197 (MW) /     25.576 (MB)
	Size of irrep 2 of <AB|CD> integrals:      3.640 (MW) /     29.124 (MB)
	Size of irrep 3 of <AB|CD> integrals:      4.783 (MW) /     38.264 (MB)
	Total:                                    16.660 (MW) /    133.283 (MB)

	Size of irrep 0 of <ab|cd> integrals:      5.327 (MW) /     42.615 (MB)
	Size of irrep 1 of <ab|cd> integrals:      3.430 (MW) /     27.439 (MB)
	Size of irrep 2 of <ab|cd> integrals:      3.893 (MW) /     31.142 (MB)
	Size of irrep 3 of <ab|cd> integrals:      5.072 (MW) /     40.572 (MB)
	Total:                                    17.721 (MW) /    141.768 (MB)

	Size of irrep 0 of <Ab|Cd> integrals:     21.912 (MW) /    175.294 (MB)
	Size of irrep 1 of <Ab|Cd> integrals:     13.242 (MW) /    105.939 (MB)
	Size of irrep 2 of <Ab|Cd> integrals:     15.062 (MW) /    120.497 (MB)
	Size of irrep 3 of <Ab|Cd> integrals:     19.705 (MW) /    157.638 (MB)
	Total:                                    69.921 (MW) /    559.368 (MB)

	Size of irrep 0 of <IA|BC> integrals:      1.469 (MW) /     11.748 (MB)
	Size of irrep 1 of <IA|BC> integrals:      0.694 (MW) /      5.550 (MB)
	Size of irrep 2 of <IA|BC> integrals:      0.908 (MW) /      7.266 (MB)
	Size of irrep 3 of <IA|BC> integrals:      1.198 (MW) /      9.588 (MB)
	Total:                                     4.269 (MW) /     34.152 (MB)

	Size of irrep 0 of <ia|bc> integrals:      1.220 (MW) /      9.758 (MB)
	Size of irrep 1 of <ia|bc> integrals:      0.493 (MW) /      3.941 (MB)
	Size of irrep 2 of <ia|bc> integrals:      0.698 (MW) /      5.588 (MB)
	Size of irrep 3 of <ia|bc> integrals:      0.959 (MW) /      7.675 (MB)
	Total:                                     3.370 (MW) /     26.961 (MB)

	Size of irrep 0 of <Ia|Bc> integrals:      1.507 (MW) /     12.058 (MB)
	Size of irrep 1 of <Ia|Bc> integrals:      0.721 (MW) /      5.764 (MB)
	Size of irrep 2 of <Ia|Bc> integrals:      0.939 (MW) /      7.514 (MB)
	Size of irrep 3 of <Ia|Bc> integrals:      1.234 (MW) /      9.872 (MB)
	Total:                                     4.401 (MW) /     35.208 (MB)

	Size of irrep 0 of <iA|bC> integrals:      1.194 (MW) /      9.549 (MB)
	Size of irrep 1 of <iA|bC> integrals:      0.477 (MW) /      3.814 (MB)
	Size of irrep 2 of <iA|bC> integrals:      0.671 (MW) /      5.371 (MB)
	Size of irrep 3 of <iA|bC> integrals:      0.928 (MW) /      7.422 (MB)
	Total:                                     3.270 (MW) /     26.156 (MB)

	Size of irrep 0 of tIjAb amplitudes:       0.094 (MW) /      0.749 (MB)
	Size of irrep 1 of tIjAb amplitudes:       0.015 (MW) /      0.116 (MB)
	Size of irrep 2 of tIjAb amplitudes:       0.047 (MW) /      0.373 (MB)
	Size of irrep 3 of tIjAb amplitudes:       0.053 (MW) /      0.426 (MB)
	Total:                                     0.208 (MW) /      1.664 (MB)

	Nuclear Rep. energy          =     22.78088499944937
	SCF energy                   =   -150.87278139570469
	One-electron energy          =    -84.27163940146519
	Two-electron (AA) energy     =     10.11561834773529
	Two-electron (BB) energy     =      5.38022480514525
	Two-electron (AB) energy     =     20.91524808786260
	Two-electron energy          =     36.41109124074314
	Reference energy             =   -150.87278139570645

*** tstop() called on c5-3.compute.lan at Wed Mar 10 09:35:00 2021
Module time:
	user time   =      55.15 seconds =       0.92 minutes
	system time =      12.50 seconds =       0.21 minutes
	total time  =         24 seconds =       0.40 minutes
Total time:
	user time   =     114.17 seconds =       1.90 minutes
	system time =      14.41 seconds =       0.24 minutes
	total time  =         33 seconds =       0.55 minutes
            **************************
            *                        *
            *        CCENERGY        *
            *                        *
            **************************

    Nuclear Rep. energy (wfn)     =   22.780884999449370
    SCF energy          (wfn)     = -150.872781395704692
    Reference energy    (file100) = -150.872781395706454

    Input parameters:
    -----------------
    Wave function   =     CCSD_T
    Reference wfn   =     UHF
    Brueckner       =     No
    Memory (Mbytes) =     4000.0
    Maxiter         =     50
    R_Convergence   =     1.0e-10
    E_Convergence   =     1.0e-10
    Restart         =     Yes
    DIIS            =     Yes
    AO Basis        =     NONE
    ABCD            =     NEW
    Cache Level     =     2
    Cache Type      =     LRU
    Print Level     =     1
    Num. of threads =     12
    # Amps to Print =     10
    Print MP2 Amps? =     No
    Analyze T2 Amps =     No
    Print Pair Ener =     No
    Local CC        =     No
    SCS-MP2         =     False
    SCSN-MP2        =     False
    SCS-CCSD        =     False

MP2 correlation energy -0.4162768834721640
                Solving CC Amplitude Equations
                ------------------------------
  Iter             Energy              RMS        T1Diag      D1Diag    New D1Diag    D2Diag
  ----     ---------------------    ---------   ----------  ----------  ----------   --------
     0        -0.416276883472164    0.000e+00    0.000000    0.000000    0.000000    0.000000
     1        -0.427075392496291    5.664e-02    0.010436    0.000000    0.000000    0.000000
     2        -0.435211051320846    1.685e-02    0.010955    0.000000    0.000000    0.000000
     3        -0.437313981621429    8.499e-03    0.012803    0.000000    0.000000    0.000000
     4        -0.437189720933343    2.502e-03    0.013161    0.000000    0.000000    0.000000
     5        -0.437174915726750    1.301e-03    0.013314    0.000000    0.000000    0.000000
     6        -0.437201112771152    5.073e-04    0.013335    0.000000    0.000000    0.000000
     7        -0.437205791293543    2.535e-04    0.013329    0.000000    0.000000    0.000000
     8        -0.437206406855211    7.535e-05    0.013324    0.000000    0.000000    0.000000
     9        -0.437207716628094    3.712e-05    0.013325    0.000000    0.000000    0.000000
    10        -0.437206325697503    1.693e-05    0.013325    0.000000    0.000000    0.000000
    11        -0.437206437342827    9.615e-06    0.013325    0.000000    0.000000    0.000000
    12        -0.437206388864568    4.596e-06    0.013326    0.000000    0.000000    0.000000
    13        -0.437206412627665    1.987e-06    0.013326    0.000000    0.000000    0.000000
    14        -0.437206465522079    7.896e-07    0.013326    0.000000    0.000000    0.000000
    15        -0.437206467858176    2.010e-07    0.013326    0.000000    0.000000    0.000000
    16        -0.437206468282683    1.145e-07    0.013326    0.000000    0.000000    0.000000
    17        -0.437206469328750    3.384e-08    0.013326    0.000000    0.000000    0.000000
    18        -0.437206468842306    1.525e-08    0.013326    0.000000    0.000000    0.000000
    19        -0.437206468644728    4.795e-09    0.013326    0.000000    0.000000    0.000000
    20        -0.437206468675144    2.212e-09    0.013326    0.000000    0.000000    0.000000
    21        -0.437206468682760    1.027e-09    0.013326    0.000000    0.000000    0.000000
    22        -0.437206468689687    4.488e-10    0.013326    0.000000    0.000000    0.000000
    23        -0.437206468696564    2.151e-10    0.013326    0.000000    0.000000    0.000000
    24        -0.437206468694947    9.868e-11    0.013326    0.000000    0.000000    0.000000

    Iterations converged.


    Largest TIA Amplitudes:
              5  67        -0.0140075764
              5  65        -0.0124733852
              2   2         0.0095401709
              6  93        -0.0085655417
              5  66        -0.0084311668
              4  65        -0.0083613565
              2   6        -0.0072402552
              3   6        -0.0069838017
              3   1         0.0058753655
              4  70        -0.0053462716

    Largest Tia Amplitudes:
              4  68        -0.0140184229
              4  66        -0.0125839139
              4  65        -0.0101849749
              2   6        -0.0091893060
              2   2         0.0074392952
              1  11        -0.0051150705
              5 109         0.0049747802
              3   1         0.0047328540
              3   2        -0.0046676173
              4  82         0.0042802035

    Largest TIJAB Amplitudes:
      6   4 100  70         0.0164855792
      4   2  70  11        -0.0115129703
      6   2 100  11         0.0109691033
      7   5  50  10        -0.0089011093
      6   4  54  22         0.0085016505
      7   3  97   6        -0.0084439878
      6   4 115  81         0.0083990602
      6   4  55  22        -0.0082863901
      6   4 100  81        -0.0082320432
      6   4  93  70        -0.0082196869

    Largest Tijab Amplitudes:
      5   4  50  10        -0.0087753144
      5   2 100   8         0.0083864434
      5   2  99   6        -0.0078869784
      5   4  53  10        -0.0075010972
      5   4  99  68        -0.0074991939
      3   1  78  65        -0.0072404998
      5   4  99  71        -0.0072301100
      4   2  70  10         0.0069936542
      4   2  68   6        -0.0069785465
      5   2  99  14         0.0069512878

    Largest TIjAb Amplitudes:
      7   5  97  99        -0.0189887084
      2   3  11  11         0.0167143249
      7   5  98 100        -0.0159319114
      4   1  22  65         0.0157909314
      2   1  77  65         0.0151128441
      3   2  14   6         0.0148102490
      7   5 103  99        -0.0146415264
      3   2  14  14        -0.0145047827
      6   1  54  65        -0.0143843339
      3   2   6   6        -0.0143758968

    SCF energy       (wfn)                    = -150.872781395704692
    Reference energy (file100)                = -150.872781395706454

    Opposite-spin MP2 correlation energy      =   -0.314500627213828
    Same-spin MP2 correlation energy          =   -0.101776256258336
    MP2 correlation energy                    =   -0.416276883472164
      * MP2 total energy                      = -151.289058279178619

    Opposite-spin CCSD correlation energy     =   -0.342175434108370
    Same-spin CCSD correlation energy         =   -0.095031034586578
    CCSD correlation energy                   =   -0.437206468694947
      * CCSD total energy                     = -151.309987864401393

            **************************
            *                        *
            *        CCTRIPLES       *
            *                        *
            **************************


    Wave function   =    CCSD_T
    Reference wfn   =      UHF

    Nuclear Rep. energy (wfn)                =   22.780884999449370
    SCF energy          (wfn)                = -150.872781395704692
    Reference energy    (file100)            = -150.872781395706454
    CCSD energy         (file100)            =   -0.437206468694947
    Total CCSD energy   (file100)            = -151.309987864401393

    Number of ijk index combinations:
    Spin Case AAA:                                  56
    Spin Case BBB:                                  20
    Spin Case AAB:                                 168
    Spin Case ABB:                                 120
    AAA (T) energy                             =   -0.000396795008054
    BBB (T) energy                             =   -0.000200532510440
    AAB (T) energy                             =   -0.006714815344601
    ABB (T) energy                             =   -0.004985167225379
    (T) energy                                   =   -0.012297310088473
      * CCSD(T) total energy                     = -151.322285174489878

Stephenergy -151.32228517448988
    Psi4 stopped on: Wednesday, 10 March 2021 09:36AM
    Psi4 wall time for execution: 0:01:39.41

*** Psi4 exiting successfully. Buy a developer a beer!
