
    -----------------------------------------------------------------------
          Psi4: An Open-Source Ab Initio Electronic Structure Package
                               Psi4 1.3.2 release

                         Git: Rev {HEAD} ecbda83 


    R. M. Parrish, L. A. Burns, D. G. A. Smith, A. C. Simmonett,
    A. E. DePrince III, E. G. Hohenstein, U. Bozkaya, A. Yu. Sokolov,
    R. Di Remigio, R. M. Richard, J. F. Gonthier, A. M. James,
    H. R. McAlexander, A. Kumar, M. Saitow, X. Wang, B. P. Pritchard,
    P. Verma, H. F. Schaefer III, K. Patkowski, R. A. King, E. F. Valeev,
    F. A. Evangelista, J. M. Turney, T. D. Crawford, and C. D. Sherrill,
    J. Chem. Theory Comput. 13(7) pp 3185--3197 (2017).
    (doi: 10.1021/acs.jctc.7b00174)


                         Additional Contributions by
    P. Kraus, H. Kruse, M. H. Lechner, M. C. Schieber, R. A. Shaw,
    A. Alenaizan, R. Galvelis, Z. L. Glick, S. Lehtola, and J. P. Misiewicz

    -----------------------------------------------------------------------


    Psi4 started on: Monday, 08 March 2021 09:41AM

    Process ID: 44420
    Host:       c2-22.compute.lan
    PSIDATADIR: /apps/gb/PSI4/1.3.2/share/psi4
    Memory:     500.0 MiB
    Threads:    12
    
  ==> Input File <==

--------------------------------------------------------------------------
memory 4 GB

molecule  {
0 1
O    0.000000000000    0.000000000000   -0.067775062739
H    0.000000000000   -0.753333404800    0.537819714321
H   -0.000000000000    0.753333404800    0.537819714321
}
set {
basis aug-cc-pvtz
reference uhf
e_convergence 10
scf_type pk
freeze_core true
}

set ccenergy {
e_convergence 10
r_convergence 10
}

e = energy('ccsd(t)')

print_out('Stephenergy {}'.format(e))

--------------------------------------------------------------------------

  Memory set to   3.725 GiB by Python driver.

*** tstart() called on c2-22.compute.lan
*** at Mon Mar  8 09:41:19 2021

   => Loading Basis Set <=

    Name: AUG-CC-PVTZ
    Role: ORBITAL
    Keyword: BASIS
    atoms 1   entry O          line   327 file /apps/gb/PSI4/1.3.2/share/psi4/basis/aug-cc-pvtz.gbs 
    atoms 2-3 entry H          line    36 file /apps/gb/PSI4/1.3.2/share/psi4/basis/aug-cc-pvtz.gbs 


         ---------------------------------------------------------
                                   SCF
               by Justin Turney, Rob Parrish, Andy Simmonett
                          and Daniel G. A. Smith
                              UHF Reference
                       12 Threads,   3814 MiB Core
         ---------------------------------------------------------

  ==> Geometry <==

    Molecular point group: c2v
    Full point group: C2v

    Geometry (in Angstrom), charge = 0, multiplicity = 1:

       Center              X                  Y                   Z               Mass       
    ------------   -----------------  -----------------  -----------------  -----------------
         O            0.000000000000     0.000000000000    -0.067775062739    15.994914619570
         H            0.000000000000    -0.753333404800     0.537819714321     1.007825032230
         H           -0.000000000000     0.753333404800     0.537819714321     1.007825032230

  Running in c2v symmetry.

  Rotational constants: A =     25.67808  B =     14.73693  C =      9.36325 [cm^-1]
  Rotational constants: A = 769809.42493  B = 441801.93261  C = 280703.28786 [MHz]
  Nuclear repulsion =    9.110901108508742

  Charge       = 0
  Multiplicity = 1
  Electrons    = 10
  Nalpha       = 5
  Nbeta        = 5

  ==> Algorithm <==

  SCF Algorithm Type is PK.
  DIIS enabled.
  MOM disabled.
  Fractional occupation disabled.
  Guess Type is SAD.
  Energy threshold   = 1.00e-10
  Density threshold  = 1.00e-08
  Integral threshold = 0.00e+00

  ==> Primary Basis <==

  Basis Set: AUG-CC-PVTZ
    Blend: AUG-CC-PVTZ
    Number of shells: 32
    Number of basis function: 92
    Number of Cartesian functions: 105
    Spherical Harmonics?: true
    Max angular momentum: 3

  ==> Pre-Iterations <==

   -------------------------------------------------------
    Irrep   Nso     Nmo     Nalpha   Nbeta   Ndocc  Nsocc
   -------------------------------------------------------
     A1        35      35       0       0       0       0
     A2        12      12       0       0       0       0
     B1        18      18       0       0       0       0
     B2        27      27       0       0       0       0
   -------------------------------------------------------
    Total      92      92       5       5       5       0
   -------------------------------------------------------

  ==> Integral Setup <==

  Using in-core PK algorithm.
   Calculation information:
      Number of atoms:                   3
      Number of AO shells:              32
      Number of primitives:             52
      Number of atomic orbitals:       105
      Number of basis functions:        92

      Integral cutoff                 1.00e-12
      Number of threads:                12

  Performing in-core PK
  Using 18305562 doubles for integral storage.
  We computed 240258 shell quartets total.
  Whereas there are 139656 unique shell quartets.
    72.04 percent of shell quartets recomputed by reordering.

  ==> DiskJK: Disk-Based J/K Matrices <==

    J tasked:                  Yes
    K tasked:                  Yes
    wK tasked:                  No
    Memory [MiB]:             2861
    Schwarz Cutoff:          1E-12

    OpenMP threads:             12

  Minimum eigenvalue in the overlap matrix is 3.9622647874E-04.
  Using Symmetric Orthogonalization.

  SCF Guess: Superposition of Atomic Densities via on-the-fly atomic UHF.

  ==> Iterations <==

                        Total Energy        Delta E     RMS |[F,P]|

   @UHF iter SAD:   -75.46947122585539   -7.54695e+01   0.00000e+00 
   @UHF iter   1:   -75.97475353100293   -5.05282e-01   9.50748e-03 DIIS
   @UHF iter   2:   -76.02706321224898   -5.23097e-02   6.54553e-03 DIIS
   @UHF iter   3:   -76.05919435360376   -3.21311e-02   4.44720e-04 DIIS
   @UHF iter   4:   -76.05959104568703   -3.96692e-04   1.08207e-04 DIIS
   @UHF iter   5:   -76.05961691530065   -2.58696e-05   2.48493e-05 DIIS
   @UHF iter   6:   -76.05961906188296   -2.14658e-06   5.41135e-06 DIIS
   @UHF iter   7:   -76.05961917276552   -1.10883e-07   9.47165e-07 DIIS
   @UHF iter   8:   -76.05961917572375   -2.95823e-09   1.59827e-07 DIIS
   @UHF iter   9:   -76.05961917578936   -6.56115e-11   3.90854e-08 DIIS
   @UHF iter  10:   -76.05961917579347   -4.10694e-12   5.94890e-09 DIIS
  Energy and wave function converged.


  ==> Post-Iterations <==

   @Spin Contamination Metric:  -1.243449788E-14
   @S^2 Expected:                0.000000000E+00
   @S^2 Observed:               -1.243449788E-14
   @S   Expected:                0.000000000E+00
   @S   Observed:                0.000000000E+00

    Orbital Energies [Eh]
    ---------------------

    Alpha Occupied:                                                       

       1A1   -20.569758     2A1    -1.350331     1B2    -0.708676  
       3A1    -0.587275     1B1    -0.510219  

    Alpha Virtual:                                                        

       4A1     0.029188     2B2     0.047780     5A1     0.135608  
       2B1     0.159316     6A1     0.175352     3B2     0.183513  
       4B2     0.226068     7A1     0.244912     1A2     0.266001  
       3B1     0.298005     8A1     0.308907     5B2     0.365877  
       9A1     0.436187     6B2     0.464912     7B2     0.597812  
      10A1     0.659690    11A1     0.706374     2A2     0.724102  
       4B1     0.731624    12A1     0.830545     5B1     0.847475  
      13A1     0.893950     8B2     0.911342     6B1     0.916539  
       3A2     0.922504     9B2     0.931745    14A1     0.957424  
      15A1     1.018401    10B2     1.040866     7B1     1.080999  
      11B2     1.106024     4A2     1.176464    16A1     1.182613  
      12B2     1.263317     5A2     1.507665    17A1     1.523447  
       8B1     1.575084    18A1     1.810457    13B2     1.830267  
      14B2     1.972178    19A1     2.115097     9B1     2.263183  
       6A2     2.313946    20A1     2.329700    21A1     2.417540  
      10B1     2.421266    15B2     2.444497    22A1     2.483201  
      16B2     2.677187    11B1     2.697876    23A1     2.770863  
      17B2     2.798603     7A2     2.881255    18B2     3.648876  
      24A1     3.719635     8A2     4.021219    12B1     4.075138  
      25A1     4.138643    19B2     4.247911    13B1     4.263149  
      26A1     4.363134     9A2     4.373988    14B1     4.402244  
      20B2     4.522172    27A1     4.725145    21B2     4.836389  
      10A2     5.128630    22B2     5.160668    23B2     5.221972  
      28A1     5.299746    15B1     5.511569    29A1     5.632721  
      30A1     6.184369    24B2     6.506133    16B1     6.706880  
      31A1     6.906382    17B1     7.122333    18B1     7.248625  
      25B2     7.256738    11A2     7.303306    32A1     7.342032  
      12A2     7.349083    33A1     7.510349    34A1     7.864889  
      26B2     7.917488    27B2     8.784536    35A1    15.538578  

    Beta Occupied:                                                        

       1A1   -20.569758     2A1    -1.350331     1B2    -0.708676  
       3A1    -0.587275     1B1    -0.510219  

    Beta Virtual:                                                         

       4A1     0.029188     2B2     0.047780     5A1     0.135608  
       2B1     0.159316     6A1     0.175352     3B2     0.183513  
       4B2     0.226068     7A1     0.244912     1A2     0.266001  
       3B1     0.298005     8A1     0.308907     5B2     0.365877  
       9A1     0.436187     6B2     0.464912     7B2     0.597812  
      10A1     0.659690    11A1     0.706374     2A2     0.724102  
       4B1     0.731624    12A1     0.830545     5B1     0.847475  
      13A1     0.893950     8B2     0.911342     6B1     0.916539  
       3A2     0.922504     9B2     0.931745    14A1     0.957424  
      15A1     1.018401    10B2     1.040866     7B1     1.080999  
      11B2     1.106024     4A2     1.176464    16A1     1.182613  
      12B2     1.263317     5A2     1.507665    17A1     1.523447  
       8B1     1.575084    18A1     1.810457    13B2     1.830267  
      14B2     1.972178    19A1     2.115097     9B1     2.263183  
       6A2     2.313946    20A1     2.329700    21A1     2.417540  
      10B1     2.421266    15B2     2.444497    22A1     2.483201  
      16B2     2.677187    11B1     2.697876    23A1     2.770863  
      17B2     2.798603     7A2     2.881255    18B2     3.648876  
      24A1     3.719635     8A2     4.021219    12B1     4.075138  
      25A1     4.138643    19B2     4.247911    13B1     4.263149  
      26A1     4.363134     9A2     4.373988    14B1     4.402244  
      20B2     4.522172    27A1     4.725145    21B2     4.836389  
      10A2     5.128630    22B2     5.160668    23B2     5.221972  
      28A1     5.299746    15B1     5.511569    29A1     5.632721  
      30A1     6.184369    24B2     6.506133    16B1     6.706880  
      31A1     6.906382    17B1     7.122333    18B1     7.248625  
      25B2     7.256738    11A2     7.303306    32A1     7.342032  
      12A2     7.349083    33A1     7.510349    34A1     7.864889  
      26B2     7.917488    27B2     8.784536    35A1    15.538578  

    Final Occupation by Irrep:
             A1    A2    B1    B2 
    DOCC [     3,    0,    1,    1 ]
    SOCC [     0,    0,    0,    0 ]

  @UHF Final Energy:   -76.05961917579347

   => Energetics <=

    Nuclear Repulsion Energy =              9.1109011085087417
    One-Electron Energy =                -122.8885228072938105
    Two-Electron Energy =                  37.7180025229916041
    Total Energy =                        -76.0596191757934719

  UHF NO Occupations:
  HONO-2 :    1 B1 2.0000000
  HONO-1 :    2 A1 2.0000000
  HONO-0 :    3 A1 2.0000000
  LUNO+0 :    2 B2 0.0000000
  LUNO+1 :    4 A1 0.0000000
  LUNO+2 :    5 A1 0.0000000
  LUNO+3 :    6 A1 0.0000000


Computation Completed


Properties will be evaluated at   0.000000,   0.000000,   0.000000 [a0]

Properties computed using the SCF density matrix

  Nuclear Dipole Moment: [e a0]
     X:     0.0000      Y:     0.0000      Z:     1.0081

  Electronic Dipole Moment: [e a0]
     X:     0.0000      Y:     0.0000      Z:    -0.2115

  Dipole Moment: [e a0]
     X:     0.0000      Y:     0.0000      Z:     0.7966     Total:     0.7966

  Dipole Moment: [D]
     X:     0.0000      Y:     0.0000      Z:     2.0247     Total:     2.0247


*** tstop() called on c2-22.compute.lan at Mon Mar  8 09:41:22 2021
Module time:
	user time   =      19.80 seconds =       0.33 minutes
	system time =       1.01 seconds =       0.02 minutes
	total time  =          3 seconds =       0.05 minutes
Total time:
	user time   =      19.80 seconds =       0.33 minutes
	system time =       1.01 seconds =       0.02 minutes
	total time  =          3 seconds =       0.05 minutes
 MINTS: Wrapper to libmints.
   by Justin Turney

   Calculation information:
      Number of threads:                12
      Number of atoms:                   3
      Number of AO shells:              32
      Number of SO shells:              23
      Number of primitives:             52
      Number of atomic orbitals:       105
      Number of basis functions:        92

      Number of irreps:                  4
      Integral cutoff                 0.00e+00
      Number of functions per irrep: [  35   12   18   27 ]

 OEINTS: Overlap, kinetic, potential, dipole, and quadrupole integrals
         stored in file 35.

      Computing two-electron integrals...done
      Computed 2225303 non-zero two-electron integrals.
        Stored in file 33.


*** tstart() called on c2-22.compute.lan
*** at Mon Mar  8 09:41:23 2021


	Wfn Parameters:
	--------------------
	Wavefunction         = CCSD_T
	Number of irreps     = 4
	Number of MOs        = 92
	Number of active MOs = 91
	AO-Basis             = NONE
	Semicanonical        = false
	Reference            = UHF
	Print Level          = 1

	IRREP	# MOs	# FZDC	# DOCC	# SOCC	# VIRT	# FZVR
	-----	-----	------	------	------	------	------
	 A1	   35	    1	    2	    0	    32	    0
	 A2	   12	    0	    0	    0	    12	    0
	 B1	   18	    0	    1	    0	    17	    0
	 B2	   27	    0	    1	    0	    26	    0
	Transforming integrals...
	IWL integrals will be deleted.
	(OO|OO)...
	Presorting SO-basis two-electron integrals.
	Sorting File: SO Ints (nn|nn) nbuckets = 1
	Transforming the one-electron integrals and constructing Fock matrices
	Starting AA/AB first half-transformation.
	Sorting AA/AB half-transformed integrals.
	Starting BB first half-transformation.
	Sorting BB half-transformed integrals.
	First half integral transformation complete.
	Starting AA second half-transformation.
	Starting AB second half-transformation.
	Starting BB second half-transformation.
	Two-electron integral transformation complete.
	(OO|OV)...
	Starting AA second half-transformation.
	Starting AB second half-transformation.
	Starting BB second half-transformation.
	Two-electron integral transformation complete.
	(OO|VV)...
	Starting AA second half-transformation.
	Starting AB second half-transformation.
	Starting BB second half-transformation.
	Two-electron integral transformation complete.
	(OV|OO)...
	Starting AA/AB first half-transformation.
	Sorting AA/AB half-transformed integrals.
	Starting BB first half-transformation.
	Sorting BB half-transformed integrals.
	First half integral transformation complete.
	Starting AA second half-transformation.
	Starting AB second half-transformation.
	Starting BB second half-transformation.
	Two-electron integral transformation complete.
	(OV|OV)...
	Starting AA second half-transformation.
	Starting AB second half-transformation.
	Starting BB second half-transformation.
	Two-electron integral transformation complete.
	(OV|VV)...
	Starting AA second half-transformation.
	Starting AB second half-transformation.
	Starting BB second half-transformation.
	Two-electron integral transformation complete.
	(VV|OO)...
	Starting AA/AB first half-transformation.
	Sorting AA/AB half-transformed integrals.
	Starting BB first half-transformation.
	Sorting BB half-transformed integrals.
	First half integral transformation complete.
	Starting AA second half-transformation.
	Starting AB second half-transformation.
	Starting BB second half-transformation.
	Two-electron integral transformation complete.
	(VV|OV)...
	Starting AA second half-transformation.
	Starting AB second half-transformation.
	Starting BB second half-transformation.
	Two-electron integral transformation complete.
	(VV|VV)...
	Starting AA second half-transformation.
	Starting AB second half-transformation.
	Starting BB second half-transformation.
	Two-electron integral transformation complete.
	Frozen core energy     =    -61.29539951870497

	Size of irrep 0 of <AB|CD> integrals:      1.047 (MW) /      8.372 (MB)
	Size of irrep 1 of <AB|CD> integrals:      0.682 (MW) /      5.458 (MB)
	Size of irrep 2 of <AB|CD> integrals:      0.733 (MW) /      5.862 (MB)
	Size of irrep 3 of <AB|CD> integrals:      1.073 (MW) /      8.586 (MB)
	Total:                                     3.535 (MW) /     28.279 (MB)

	Size of irrep 0 of <ab|cd> integrals:      1.047 (MW) /      8.372 (MB)
	Size of irrep 1 of <ab|cd> integrals:      0.682 (MW) /      5.458 (MB)
	Size of irrep 2 of <ab|cd> integrals:      0.733 (MW) /      5.862 (MB)
	Size of irrep 3 of <ab|cd> integrals:      1.073 (MW) /      8.586 (MB)
	Total:                                     3.535 (MW) /     28.279 (MB)

	Size of irrep 0 of <Ab|Cd> integrals:      4.550 (MW) /     36.398 (MB)
	Size of irrep 1 of <Ab|Cd> integrals:      2.729 (MW) /     21.833 (MB)
	Size of irrep 2 of <Ab|Cd> integrals:      2.931 (MW) /     23.448 (MB)
	Size of irrep 3 of <Ab|Cd> integrals:      4.293 (MW) /     34.345 (MB)
	Total:                                    14.503 (MW) /    116.023 (MB)

	Size of irrep 0 of <IA|BC> integrals:      0.228 (MW) /      1.826 (MB)
	Size of irrep 1 of <IA|BC> integrals:      0.111 (MW) /      0.885 (MB)
	Size of irrep 2 of <IA|BC> integrals:      0.134 (MW) /      1.068 (MB)
	Size of irrep 3 of <IA|BC> integrals:      0.199 (MW) /      1.591 (MB)
	Total:                                     0.671 (MW) /      5.371 (MB)

	Size of irrep 0 of <ia|bc> integrals:      0.228 (MW) /      1.826 (MB)
	Size of irrep 1 of <ia|bc> integrals:      0.111 (MW) /      0.885 (MB)
	Size of irrep 2 of <ia|bc> integrals:      0.134 (MW) /      1.068 (MB)
	Size of irrep 3 of <ia|bc> integrals:      0.199 (MW) /      1.591 (MB)
	Total:                                     0.671 (MW) /      5.371 (MB)

	Size of irrep 0 of <Ia|Bc> integrals:      0.228 (MW) /      1.826 (MB)
	Size of irrep 1 of <Ia|Bc> integrals:      0.111 (MW) /      0.885 (MB)
	Size of irrep 2 of <Ia|Bc> integrals:      0.134 (MW) /      1.068 (MB)
	Size of irrep 3 of <Ia|Bc> integrals:      0.199 (MW) /      1.591 (MB)
	Total:                                     0.671 (MW) /      5.371 (MB)

	Size of irrep 0 of <iA|bC> integrals:      0.228 (MW) /      1.826 (MB)
	Size of irrep 1 of <iA|bC> integrals:      0.111 (MW) /      0.885 (MB)
	Size of irrep 2 of <iA|bC> integrals:      0.134 (MW) /      1.068 (MB)
	Size of irrep 3 of <iA|bC> integrals:      0.199 (MW) /      1.591 (MB)
	Total:                                     0.671 (MW) /      5.371 (MB)

	Size of irrep 0 of tIjAb amplitudes:       0.013 (MW) /      0.102 (MB)
	Size of irrep 1 of tIjAb amplitudes:       0.003 (MW) /      0.026 (MB)
	Size of irrep 2 of tIjAb amplitudes:       0.007 (MW) /      0.055 (MB)
	Size of irrep 3 of tIjAb amplitudes:       0.008 (MW) /      0.066 (MB)
	Total:                                     0.031 (MW) /      0.250 (MB)

	Nuclear Rep. energy          =      9.11090110850874
	SCF energy                   =    -76.05961917579347
	One-electron energy          =    -41.43723946591853
	Two-electron (AA) energy     =      3.41387094998679
	Two-electron (BB) energy     =      3.41387094998679
	Two-electron (AB) energy     =     10.73437680034781
	Two-electron energy          =     17.56211870032138
	Reference energy             =    -76.05961917579339

*** tstop() called on c2-22.compute.lan at Mon Mar  8 09:41:39 2021
Module time:
	user time   =     136.50 seconds =       2.27 minutes
	system time =       8.29 seconds =       0.14 minutes
	total time  =         16 seconds =       0.27 minutes
Total time:
	user time   =     159.99 seconds =       2.67 minutes
	system time =       9.57 seconds =       0.16 minutes
	total time  =         20 seconds =       0.33 minutes
            **************************
            *                        *
            *        CCENERGY        *
            *                        *
            **************************

    Nuclear Rep. energy (wfn)     =    9.110901108508742
    SCF energy          (wfn)     =  -76.059619175793472
    Reference energy    (file100) =  -76.059619175793387

    Input parameters:
    -----------------
    Wave function   =     CCSD_T
    Reference wfn   =     UHF
    Brueckner       =     No
    Memory (Mbytes) =     4000.0
    Maxiter         =     50
    R_Convergence   =     1.0e-10
    E_Convergence   =     1.0e-10
    Restart         =     Yes
    DIIS            =     Yes
    AO Basis        =     NONE
    ABCD            =     NEW
    Cache Level     =     2
    Cache Type      =     LRU
    Print Level     =     1
    Num. of threads =     12
    # Amps to Print =     10
    Print MP2 Amps? =     No
    Analyze T2 Amps =     No
    Print Pair Ener =     No
    Local CC        =     No
    SCS-MP2         =     False
    SCSN-MP2        =     False
    SCS-CCSD        =     False

MP2 correlation energy -0.2692707788285074
                Solving CC Amplitude Equations
                ------------------------------
  Iter             Energy              RMS        T1Diag      D1Diag    New D1Diag    D2Diag
  ----     ---------------------    ---------   ----------  ----------  ----------   --------
     0        -0.269270778828507    0.000e+00    0.000000    0.000000    0.000000    0.000000
     1        -0.267601667308509    4.815e-02    0.012219    0.000000    0.000000    0.000000
     2        -0.272748288277037    1.332e-02    0.011991    0.000000    0.000000    0.000000
     3        -0.273988881966481    6.267e-03    0.013875    0.000000    0.000000    0.000000
     4        -0.273883185666131    1.264e-03    0.014203    0.000000    0.000000    0.000000
     5        -0.273866871660562    4.653e-04    0.014337    0.000000    0.000000    0.000000
     6        -0.273867722507333    1.159e-04    0.014368    0.000000    0.000000    0.000000
     7        -0.273866470302288    3.926e-05    0.014374    0.000000    0.000000    0.000000
     8        -0.273866515199765    1.074e-05    0.014376    0.000000    0.000000    0.000000
     9        -0.273866558621366    3.273e-06    0.014376    0.000000    0.000000    0.000000
    10        -0.273866436767074    1.310e-06    0.014376    0.000000    0.000000    0.000000
    11        -0.273866454038037    4.501e-07    0.014376    0.000000    0.000000    0.000000
    12        -0.273866448697224    1.703e-07    0.014376    0.000000    0.000000    0.000000
    13        -0.273866450467557    5.053e-08    0.014376    0.000000    0.000000    0.000000
    14        -0.273866451667050    1.337e-08    0.014376    0.000000    0.000000    0.000000
    15        -0.273866451722152    4.040e-09    0.014376    0.000000    0.000000    0.000000
    16        -0.273866451728069    1.224e-09    0.014376    0.000000    0.000000    0.000000
    17        -0.273866451738257    4.191e-10    0.014376    0.000000    0.000000    0.000000
    18        -0.273866451735688    1.092e-10    0.014376    0.000000    0.000000    0.000000
    19        -0.273866451735472    3.304e-11    0.014376    0.000000    0.000000    0.000000

    Iterations converged.


    Largest TIA Amplitudes:
              2  44        -0.0153148059
              2  45        -0.0132154618
              1   1         0.0084814658
              1   4        -0.0077004611
              3  73         0.0054777540
              2  54         0.0042905834
              3  69         0.0038536229
              3  80         0.0036750558
              2  47        -0.0036494378
              1  23         0.0034084977

    Largest Tia Amplitudes:
              2  44        -0.0153148059
              2  45        -0.0132154618
              1   1         0.0084814658
              1   4        -0.0077004611
              3  73         0.0054777540
              2  54         0.0042905834
              3  69         0.0038536229
              3  80         0.0036750558
              2  47        -0.0036494378
              1  23         0.0034084977

    Largest TIJAB Amplitudes:
      2   1  46   7        -0.0096008327
      3   1  66   6        -0.0093969292
      3   2  33   6        -0.0083928085
      3   1  65   9         0.0080628769
      2   1  49   9         0.0079266274
      3   2  65  49        -0.0077723872
      3   2  65  44        -0.0074964607
      3   1  66  13         0.0074443928
      3   2  65  45        -0.0072458395
      2   1  48   9         0.0070973599

    Largest Tijab Amplitudes:
      2   1  46   7        -0.0096008327
      3   1  66   6        -0.0093969292
      3   2  33   6        -0.0083928085
      3   1  65   9         0.0080628769
      2   1  49   9         0.0079266274
      3   2  65  49        -0.0077723872
      3   2  65  44        -0.0074964607
      3   1  66  13         0.0074443928
      3   2  65  45        -0.0072458395
      2   1  48   9         0.0070973599

    Largest TIjAb Amplitudes:
      3   3  65  65        -0.0223201309
      1   1   9   9        -0.0195438549
      2   2  49  49        -0.0158807680
      3   3  65  69        -0.0157791593
      3   3  69  65        -0.0157791593
      3   3  66  66        -0.0148697833
      1   1  66  66        -0.0136651405
      2   2  48  48        -0.0134085963
      3   3  69  69        -0.0130935701
      1   3   9  65         0.0128288309

    SCF energy       (wfn)                    =  -76.059619175793472
    Reference energy (file100)                =  -76.059619175793387

    Opposite-spin MP2 correlation energy      =   -0.203914916689455
    Same-spin MP2 correlation energy          =   -0.065355862139052
    MP2 correlation energy                    =   -0.269270778828507
      * MP2 total energy                      =  -76.328889954621900

    Opposite-spin CCSD correlation energy     =   -0.215920546274431
    Same-spin CCSD correlation energy         =   -0.057945905461041
    CCSD correlation energy                   =   -0.273866451735472
      * CCSD total energy                     =  -76.333485627528859

            **************************
            *                        *
            *        CCTRIPLES       *
            *                        *
            **************************


    Wave function   =    CCSD_T
    Reference wfn   =      UHF

    Nuclear Rep. energy (wfn)                =    9.110901108508742
    SCF energy          (wfn)                =  -76.059619175793472
    Reference energy    (file100)            =  -76.059619175793387
    CCSD energy         (file100)            =   -0.273866451735472
    Total CCSD energy   (file100)            =  -76.333485627528859

    Number of ijk index combinations:
    Spin Case AAA:                                   4
    Spin Case BBB:                                   4
    Spin Case AAB:                                  24
    Spin Case ABB:                                  24
    AAA (T) energy                             =   -0.000194413764169
    BBB (T) energy                             =   -0.000194413764169
    AAB (T) energy                             =   -0.004172621690489
    ABB (T) energy                             =   -0.004172621690489
    (T) energy                                   =   -0.008734070909316
      * CCSD(T) total energy                     =  -76.342219698438171

Stephenergy -76.34221969843817
    Psi4 stopped on: Monday, 08 March 2021 09:41AM
    Psi4 wall time for execution: 0:00:28.29

*** Psi4 exiting successfully. Buy a developer a beer!
