
    -----------------------------------------------------------------------
          Psi4: An Open-Source Ab Initio Electronic Structure Package
                               Psi4 1.3.2 release

                         Git: Rev {HEAD} ecbda83 


    R. M. Parrish, L. A. Burns, D. G. A. Smith, A. C. Simmonett,
    A. E. DePrince III, E. G. Hohenstein, U. Bozkaya, A. Yu. Sokolov,
    R. Di Remigio, R. M. Richard, J. F. Gonthier, A. M. James,
    H. R. McAlexander, A. Kumar, M. Saitow, X. Wang, B. P. Pritchard,
    P. Verma, H. F. Schaefer III, K. Patkowski, R. A. King, E. F. Valeev,
    F. A. Evangelista, J. M. Turney, T. D. Crawford, and C. D. Sherrill,
    J. Chem. Theory Comput. 13(7) pp 3185--3197 (2017).
    (doi: 10.1021/acs.jctc.7b00174)


                         Additional Contributions by
    P. Kraus, H. Kruse, M. H. Lechner, M. C. Schieber, R. A. Shaw,
    A. Alenaizan, R. Galvelis, Z. L. Glick, S. Lehtola, and J. P. Misiewicz

    -----------------------------------------------------------------------


    Psi4 started on: Wednesday, 10 March 2021 10:52AM

    Process ID: 116448
    Host:       c5-3.compute.lan
    PSIDATADIR: /apps/gb/PSI4/1.3.2/share/psi4
    Memory:     500.0 MiB
    Threads:    12
    
  ==> Input File <==

--------------------------------------------------------------------------
memory 4 GB

molecule  {
0 3
O    0.000000000000    0.000000000000   -1.647450055281
H    0.000000000000   -0.756145855532   -1.052773402100
H   -0.000000000000    0.756145855532   -1.052773402100
O    0.000000000000    0.000000000000    1.780118645660
}
set {
basis aug-cc-pvtz
reference uhf
e_convergence 10
scf_type pk
freeze_core true
}

set ccenergy {
e_convergence 10
r_convergence 10
}

e = energy('ccsd(t)')

print_out('Stephenergy {}'.format(e))

--------------------------------------------------------------------------

  Memory set to   3.725 GiB by Python driver.

*** tstart() called on c5-3.compute.lan
*** at Wed Mar 10 10:52:41 2021

   => Loading Basis Set <=

    Name: AUG-CC-PVTZ
    Role: ORBITAL
    Keyword: BASIS
    atoms 1, 4 entry O          line   327 file /apps/gb/PSI4/1.3.2/share/psi4/basis/aug-cc-pvtz.gbs 
    atoms 2-3  entry H          line    36 file /apps/gb/PSI4/1.3.2/share/psi4/basis/aug-cc-pvtz.gbs 


         ---------------------------------------------------------
                                   SCF
               by Justin Turney, Rob Parrish, Andy Simmonett
                          and Daniel G. A. Smith
                              UHF Reference
                       12 Threads,   3814 MiB Core
         ---------------------------------------------------------

  ==> Geometry <==

    Molecular point group: c2v
    Full point group: C2v

    Geometry (in Angstrom), charge = 0, multiplicity = 3:

       Center              X                  Y                   Z               Mass       
    ------------   -----------------  -----------------  -----------------  -----------------
         O           -0.000000000000     0.000000000000    -1.647450055281    15.994914619570
         H            0.000000000000    -0.756145855532    -1.052773402100     1.007825032230
         H           -0.000000000000     0.756145855532    -1.052773402100     1.007825032230
         O           -0.000000000000     0.000000000000     1.780118645660    15.994914619570

  Running in c2v symmetry.

  Rotational constants: A =     14.62750  B =      0.17500  C =      0.17293 [cm^-1]
  Rotational constants: A = 438521.51955  B =   5246.29134  C =   5184.26887 [MHz]
  Nuclear repulsion =   21.919954964263368

  Charge       = 0
  Multiplicity = 3
  Electrons    = 18
  Nalpha       = 10
  Nbeta        = 8

  ==> Algorithm <==

  SCF Algorithm Type is PK.
  DIIS enabled.
  MOM disabled.
  Fractional occupation disabled.
  Guess Type is SAD.
  Energy threshold   = 1.00e-10
  Density threshold  = 1.00e-08
  Integral threshold = 0.00e+00

  ==> Primary Basis <==

  Basis Set: AUG-CC-PVTZ
    Blend: AUG-CC-PVTZ
    Number of shells: 46
    Number of basis function: 138
    Number of Cartesian functions: 160
    Spherical Harmonics?: true
    Max angular momentum: 3

  ==> Pre-Iterations <==

   -------------------------------------------------------
    Irrep   Nso     Nmo     Nalpha   Nbeta   Ndocc  Nsocc
   -------------------------------------------------------
     A1        54      54       0       0       0       0
     A2        17      17       0       0       0       0
     B1        29      29       0       0       0       0
     B2        38      38       0       0       0       0
   -------------------------------------------------------
    Total     138     138      10       8       8       2
   -------------------------------------------------------

  ==> Integral Setup <==

  Using in-core PK algorithm.
   Calculation information:
      Number of atoms:                   4
      Number of AO shells:              46
      Number of primitives:             82
      Number of atomic orbitals:       160
      Number of basis functions:       138

      Integral cutoff                 1.00e-12
      Number of threads:                12

  Performing in-core PK
  Using 91996872 doubles for integral storage.
  We computed 904902 shell quartets total.
  Whereas there are 584821 unique shell quartets.
    54.73 percent of shell quartets recomputed by reordering.

  ==> DiskJK: Disk-Based J/K Matrices <==

    J tasked:                  Yes
    K tasked:                  Yes
    wK tasked:                  No
    Memory [MiB]:             2861
    Schwarz Cutoff:          1E-12

    OpenMP threads:             12

  Minimum eigenvalue in the overlap matrix is 3.7094462624E-04.
  Using Symmetric Orthogonalization.

  SCF Guess: Superposition of Atomic Densities via on-the-fly atomic UHF.

  ==> Iterations <==

                        Total Energy        Delta E     RMS |[F,P]|

   @UHF iter SAD:  -149.38213946075155   -1.49382e+02   0.00000e+00 
   @UHF iter   1:  -150.76834844315044   -1.38621e+00   6.87314e-03 DIIS
   @UHF iter   2:  -150.83873775829238   -7.03893e-02   4.45052e-03 DIIS
   @UHF iter   3:  -150.87230289006067   -3.35651e-02   5.33828e-04 DIIS
   @UHF iter   4:  -150.87341698228579   -1.11409e-03   1.77573e-04 DIIS
   @UHF iter   5:  -150.87354570937828   -1.28727e-04   7.05373e-05 DIIS
   @UHF iter   6:  -150.87357924175376   -3.35324e-05   2.01679e-05 DIIS
   @UHF iter   7:  -150.87358215600244   -2.91425e-06   4.82944e-06 DIIS
   @UHF iter   8:  -150.87358233843705   -1.82435e-07   1.20596e-06 DIIS
   @UHF iter   9:  -150.87358234928081   -1.08438e-08   2.21409e-07 DIIS
   @UHF iter  10:  -150.87358234960044   -3.19631e-10   6.64818e-08 DIIS
   @UHF iter  11:  -150.87358234963651   -3.60671e-11   3.36479e-08 DIIS
   @UHF iter  12:  -150.87358234964950   -1.29887e-11   1.04648e-08 DIIS
   @UHF iter  13:  -150.87358234965089   -1.39266e-12   3.60012e-09 DIIS
  Energy and wave function converged.


  ==> Post-Iterations <==

   @Spin Contamination Metric:   9.219271982E-03
   @S^2 Expected:                2.000000000E+00
   @S^2 Observed:                2.009219272E+00
   @S   Expected:                1.000000000E+00
   @S   Observed:                1.000000000E+00

    Orbital Energies [Eh]
    ---------------------

    Alpha Occupied:                                                       

       1A1   -20.728823     2A1   -20.562976     3A1    -1.437805  
       4A1    -1.346611     1B2    -0.729219     1B1    -0.728835  
       2B2    -0.708494     5A1    -0.632108     6A1    -0.579577  
       2B1    -0.505256  

    Alpha Virtual:                                                        

       7A1     0.035476     3B2     0.048521     3B1     0.132142  
       8A1     0.134762     9A1     0.148020     4B2     0.158037  
       4B1     0.181116     5B2     0.184876    10A1     0.189252  
      11A1     0.250147     6B2     0.257549     1A2     0.265965  
      12A1     0.273385     5B1     0.319869    13A1     0.367651  
       7B2     0.382292    14A1     0.453866     8B2     0.471701  
       2A2     0.609127     9B2     0.615854    15A1     0.617802  
      16A1     0.619550     6B1     0.640373    17A1     0.717463  
       3A2     0.730836    10B2     0.735572     7B1     0.742115  
      18A1     0.800653    19A1     0.838334     8B1     0.841139  
      11B2     0.854163     9B1     0.915303    20A1     0.925487  
       4A2     0.933863    12B2     0.941652    21A1     0.958592  
      10B1     0.960309    13B2     0.961940    22A1     1.048321  
      14B2     1.054040    11B1     1.122858     5A2     1.185323  
      23A1     1.185539    15B2     1.254631    24A1     1.262070  
      16B2     1.275094    25A1     1.346168     6A2     1.511498  
      12B1     1.592361    26A1     1.631731    17B2     1.827175  
      27A1     1.828204    18B2     1.972412    13B1     1.978693  
      19B2     1.989639    28A1     2.005447     7A2     2.011081  
      14B1     2.026088    29A1     2.036320     8A2     2.039645  
      20B2     2.080753    30A1     2.085289    15B1     2.119450  
      31A1     2.145024    21B2     2.259816    16B1     2.278639  
       9A2     2.329257    32A1     2.336786    33A1     2.402392  
      34A1     2.487172    22B2     2.491658    17B1     2.504334  
      35A1     2.574681    23B2     2.690194    18B1     2.718778  
      36A1     2.818184    10A2     2.888503    24B2     2.903027  
      25B2     3.665770    37A1     3.754209    11A2     4.029467  
      19B1     4.050772    26B2     4.084307    20B1     4.101057  
      38A1     4.148949    27B2     4.275712    21B1     4.286517  
      39A1     4.369328    12A2     4.382978    40A1     4.406702  
      22B1     4.415804    28B2     4.528154    41A1     4.747284  
      29B2     4.849702    13A2     5.149560    30B2     5.159937  
      31B2     5.253740    42A1     5.367302    23B1     5.525549  
      43A1     5.677744    44A1     6.196470    24B1     6.315272  
      32B2     6.316100    14A2     6.370044    45A1     6.375240  
      25B1     6.402051    33B2     6.449851    46A1     6.479331  
      34B2     6.528944    26B1     6.736948    15A2     6.819219  
      47A1     6.820632    48A1     6.926577    27B1     6.927155  
      35B2     6.956800    49A1     7.032709    28B1     7.135834  
      29B1     7.259931    16A2     7.316597    36B2     7.346414  
      50A1     7.355254    17A2     7.358618    51A1     7.547058  
      52A1     7.902609    37B2     7.933737    53A1     8.528641  
      38B2     8.808983    54A1    15.718617  

    Beta Occupied:                                                        

       1A1   -20.650259     2A1   -20.563014     3A1    -1.346784  
       4A1    -1.095508     1B2    -0.708633     5A1    -0.583671  
       6A1    -0.538390     1B1    -0.505248  

    Beta Virtual:                                                         

       2B2     0.035433     7A1     0.036591     2B1     0.049989  
       3B2     0.069592     8A1     0.140926     9A1     0.150593  
       3B1     0.160418     4B2     0.180845    10A1     0.189571  
       5B2     0.221870     4B1     0.225352    11A1     0.259114  
       6B2     0.263152     1A2     0.266277    12A1     0.274861  
       5B1     0.320508    13A1     0.371033     7B2     0.387321  
      14A1     0.454990     8B2     0.472224     9B2     0.618303  
      15A1     0.620159     2A2     0.641350    16A1     0.651371  
       6B1     0.652466    17A1     0.718795     3A2     0.732270  
       7B1     0.744110    10B2     0.746973    18A1     0.809121  
      19A1     0.851440     8B1     0.912546     9B1     0.930187  
      20A1     0.930826     4A2     0.935257    11B2     0.940094  
      12B2     0.944295    21A1     0.959510    13B2     1.009758  
      10B1     1.024914    22A1     1.048900    14B2     1.056705  
      11B1     1.127840     5A2     1.186020    23A1     1.189610  
      15B2     1.268525    16B2     1.277951    24A1     1.280621  
      25A1     1.404187     6A2     1.511604    12B1     1.592461  
      26A1     1.644104    17B2     1.828370    27A1     1.829318  
      18B2     1.979566    13B1     2.016792    19B2     2.021432  
      28A1     2.030653     7A2     2.041403    14B1     2.046262  
      29A1     2.098827    20B2     2.124401    30A1     2.155112  
       8A2     2.182421    15B1     2.188766    31A1     2.195012  
      16B1     2.282905    21B2     2.305975     9A2     2.332187  
      32A1     2.357598    33A1     2.413212    34A1     2.491506  
      22B2     2.496279    17B1     2.508984    35A1     2.577656  
      23B2     2.690357    18B1     2.718864    36A1     2.818487  
      10A2     2.888524    24B2     2.905040    25B2     3.665802  
      37A1     3.754344    11A2     4.029553    19B1     4.100456  
      38A1     4.164005    20B1     4.223528    26B2     4.240100  
      21B1     4.286538    27B2     4.290147    12A2     4.383025  
      39A1     4.394776    40A1     4.413717    22B1     4.415994  
      28B2     4.528358    41A1     4.747427    29B2     4.849791  
      13A2     5.149577    30B2     5.159941    31B2     5.253763  
      42A1     5.367743    23B1     5.525553    43A1     5.678075  
      44A1     6.198096    24B1     6.424120    32B2     6.424810  
      14A2     6.446705    45A1     6.450320    25B1     6.457364  
      33B2     6.495016    46A1     6.528182    34B2     6.540420  
      26B1     6.743272    47A1     6.926494    15A2     7.008244  
      48A1     7.010020    27B1     7.034629    35B2     7.065902  
      49A1     7.113762    28B1     7.136123    29B1     7.259887  
      16A2     7.316637    36B2     7.348435    50A1     7.355935  
      17A2     7.358677    51A1     7.547785    52A1     7.902830  
      37B2     7.933721    53A1     8.613799    38B2     8.808923  
      54A1    15.718611  

    Final Occupation by Irrep:
             A1    A2    B1    B2 
    DOCC [     6,    0,    1,    1 ]
    SOCC [     0,    0,    1,    1 ]

  @UHF Final Energy:  -150.87358234965089

   => Energetics <=

    Nuclear Repulsion Energy =             21.9199549642633684
    One-Electron Energy =                -251.6358647731717042
    Two-Electron Energy =                  78.8423274592574472
    Total Energy =                       -150.8735823496509170

  UHF NO Occupations:
  HONO-2 :    6 A1 1.9970746
  HONO-1 :    2 B2 1.0000000
  HONO-0 :    2 B1 1.0000000
  LUNO+0 :    7 A1 0.0029254
  LUNO+1 :    8 A1 0.0016869
  LUNO+2 :    9 A1 0.0000024
  LUNO+3 :   10 A1 0.0000004


Computation Completed


Properties will be evaluated at   0.000000,   0.000000,   0.000000 [a0]

Properties computed using the SCF density matrix

  Nuclear Dipole Moment: [e a0]
     X:    -0.0000      Y:     0.0000      Z:    -1.9732

  Electronic Dipole Moment: [e a0]
     X:     0.0000      Y:     0.0000      Z:     2.8044

  Dipole Moment: [e a0]
     X:    -0.0000      Y:     0.0000      Z:     0.8311     Total:     0.8311

  Dipole Moment: [D]
     X:    -0.0000      Y:     0.0000      Z:     2.1125     Total:     2.1125


*** tstop() called on c5-3.compute.lan at Wed Mar 10 10:52:48 2021
Module time:
	user time   =      55.74 seconds =       0.93 minutes
	system time =       2.05 seconds =       0.03 minutes
	total time  =          7 seconds =       0.12 minutes
Total time:
	user time   =      55.74 seconds =       0.93 minutes
	system time =       2.05 seconds =       0.03 minutes
	total time  =          7 seconds =       0.12 minutes
 MINTS: Wrapper to libmints.
   by Justin Turney

   Calculation information:
      Number of threads:                12
      Number of atoms:                   4
      Number of AO shells:              46
      Number of SO shells:              37
      Number of primitives:             82
      Number of atomic orbitals:       160
      Number of basis functions:       138

      Number of irreps:                  4
      Integral cutoff                 0.00e+00
      Number of functions per irrep: [  54   17   29   38 ]

 OEINTS: Overlap, kinetic, potential, dipole, and quadrupole integrals
         stored in file 35.

      Computing two-electron integrals...done
      Computed 11527768 non-zero two-electron integrals.
        Stored in file 33.


*** tstart() called on c5-3.compute.lan
*** at Wed Mar 10 10:52:51 2021


	Wfn Parameters:
	--------------------
	Wavefunction         = CCSD_T
	Number of irreps     = 4
	Number of MOs        = 138
	Number of active MOs = 136
	AO-Basis             = NONE
	Semicanonical        = false
	Reference            = UHF
	Print Level          = 1

	IRREP	# MOs	# FZDC	# DOCC	# SOCC	# VIRT	# FZVR
	-----	-----	------	------	------	------	------
	 A1	   54	    2	    4	    0	    48	    0
	 A2	   17	    0	    0	    0	    17	    0
	 B1	   29	    0	    1	    1	    27	    0
	 B2	   38	    0	    1	    1	    36	    0
	Transforming integrals...
	IWL integrals will be deleted.
	(OO|OO)...
	Presorting SO-basis two-electron integrals.
	Sorting File: SO Ints (nn|nn) nbuckets = 1
	Transforming the one-electron integrals and constructing Fock matrices
	Starting AA/AB first half-transformation.
	Sorting AA/AB half-transformed integrals.
	Starting BB first half-transformation.
	Sorting BB half-transformed integrals.
	First half integral transformation complete.
	Starting AA second half-transformation.
	Starting AB second half-transformation.
	Starting BB second half-transformation.
	Two-electron integral transformation complete.
	(OO|OV)...
	Starting AA second half-transformation.
	Starting AB second half-transformation.
	Starting BB second half-transformation.
	Two-electron integral transformation complete.
	(OO|VV)...
	Starting AA second half-transformation.
	Starting AB second half-transformation.
	Starting BB second half-transformation.
	Two-electron integral transformation complete.
	(OV|OO)...
	Starting AA/AB first half-transformation.
	Sorting AA/AB half-transformed integrals.
	Starting BB first half-transformation.
	Sorting BB half-transformed integrals.
	First half integral transformation complete.
	Starting AA second half-transformation.
	Starting AB second half-transformation.
	Starting BB second half-transformation.
	Two-electron integral transformation complete.
	(OV|OV)...
	Starting AA second half-transformation.
	Starting AB second half-transformation.
	Starting BB second half-transformation.
	Two-electron integral transformation complete.
	(OV|VV)...
	Starting AA second half-transformation.
	Starting AB second half-transformation.
	Starting BB second half-transformation.
	Two-electron integral transformation complete.
	(VV|OO)...
	Starting AA/AB first half-transformation.
	Sorting AA/AB half-transformed integrals.
	Starting BB first half-transformation.
	Sorting BB half-transformed integrals.
	First half integral transformation complete.
	Starting AA second half-transformation.
	Starting AB second half-transformation.
	Starting BB second half-transformation.
	Two-electron integral transformation complete.
	(VV|OV)...
	Starting AA second half-transformation.
	Starting AB second half-transformation.
	Starting BB second half-transformation.
	Two-electron integral transformation complete.
	(VV|VV)...
	Starting AA second half-transformation.
	Starting AB second half-transformation.
	Starting BB second half-transformation.
	Two-electron integral transformation complete.
	Frozen core energy     =   -125.45617847139542

	Size of irrep 0 of <AB|CD> integrals:      5.040 (MW) /     40.320 (MB)
	Size of irrep 1 of <AB|CD> integrals:      3.197 (MW) /     25.576 (MB)
	Size of irrep 2 of <AB|CD> integrals:      3.640 (MW) /     29.124 (MB)
	Size of irrep 3 of <AB|CD> integrals:      4.783 (MW) /     38.264 (MB)
	Total:                                    16.660 (MW) /    133.283 (MB)

	Size of irrep 0 of <ab|cd> integrals:      5.327 (MW) /     42.615 (MB)
	Size of irrep 1 of <ab|cd> integrals:      3.430 (MW) /     27.439 (MB)
	Size of irrep 2 of <ab|cd> integrals:      3.893 (MW) /     31.142 (MB)
	Size of irrep 3 of <ab|cd> integrals:      5.072 (MW) /     40.572 (MB)
	Total:                                    17.721 (MW) /    141.768 (MB)

	Size of irrep 0 of <Ab|Cd> integrals:     21.912 (MW) /    175.294 (MB)
	Size of irrep 1 of <Ab|Cd> integrals:     13.242 (MW) /    105.939 (MB)
	Size of irrep 2 of <Ab|Cd> integrals:     15.062 (MW) /    120.497 (MB)
	Size of irrep 3 of <Ab|Cd> integrals:     19.705 (MW) /    157.638 (MB)
	Total:                                    69.921 (MW) /    559.368 (MB)

	Size of irrep 0 of <IA|BC> integrals:      1.469 (MW) /     11.748 (MB)
	Size of irrep 1 of <IA|BC> integrals:      0.694 (MW) /      5.550 (MB)
	Size of irrep 2 of <IA|BC> integrals:      0.908 (MW) /      7.266 (MB)
	Size of irrep 3 of <IA|BC> integrals:      1.198 (MW) /      9.588 (MB)
	Total:                                     4.269 (MW) /     34.152 (MB)

	Size of irrep 0 of <ia|bc> integrals:      1.220 (MW) /      9.758 (MB)
	Size of irrep 1 of <ia|bc> integrals:      0.493 (MW) /      3.941 (MB)
	Size of irrep 2 of <ia|bc> integrals:      0.698 (MW) /      5.588 (MB)
	Size of irrep 3 of <ia|bc> integrals:      0.959 (MW) /      7.675 (MB)
	Total:                                     3.370 (MW) /     26.961 (MB)

	Size of irrep 0 of <Ia|Bc> integrals:      1.507 (MW) /     12.058 (MB)
	Size of irrep 1 of <Ia|Bc> integrals:      0.721 (MW) /      5.764 (MB)
	Size of irrep 2 of <Ia|Bc> integrals:      0.939 (MW) /      7.514 (MB)
	Size of irrep 3 of <Ia|Bc> integrals:      1.234 (MW) /      9.872 (MB)
	Total:                                     4.401 (MW) /     35.208 (MB)

	Size of irrep 0 of <iA|bC> integrals:      1.194 (MW) /      9.549 (MB)
	Size of irrep 1 of <iA|bC> integrals:      0.477 (MW) /      3.814 (MB)
	Size of irrep 2 of <iA|bC> integrals:      0.671 (MW) /      5.371 (MB)
	Size of irrep 3 of <iA|bC> integrals:      0.928 (MW) /      7.422 (MB)
	Total:                                     3.270 (MW) /     26.156 (MB)

	Size of irrep 0 of tIjAb amplitudes:       0.094 (MW) /      0.749 (MB)
	Size of irrep 1 of tIjAb amplitudes:       0.015 (MW) /      0.116 (MB)
	Size of irrep 2 of tIjAb amplitudes:       0.047 (MW) /      0.373 (MB)
	Size of irrep 3 of tIjAb amplitudes:       0.053 (MW) /      0.426 (MB)
	Total:                                     0.208 (MW) /      1.664 (MB)

	Nuclear Rep. energy          =     21.91995496426337
	SCF energy                   =   -150.87358234965089
	One-electron energy          =    -83.22857906765807
	Two-electron (AA) energy     =      9.94424659746449
	Two-electron (BB) energy     =      5.29177477301869
	Two-electron (AB) energy     =     20.65519885465418
	Two-electron energy          =     35.89122022513735
	Reference energy             =   -150.87358234965276

*** tstop() called on c5-3.compute.lan at Wed Mar 10 10:53:13 2021
Module time:
	user time   =      57.70 seconds =       0.96 minutes
	system time =      11.93 seconds =       0.20 minutes
	total time  =         22 seconds =       0.37 minutes
Total time:
	user time   =     118.89 seconds =       1.98 minutes
	system time =      14.34 seconds =       0.24 minutes
	total time  =         32 seconds =       0.53 minutes
            **************************
            *                        *
            *        CCENERGY        *
            *                        *
            **************************

    Nuclear Rep. energy (wfn)     =   21.919954964263368
    SCF energy          (wfn)     = -150.873582349650889
    Reference energy    (file100) = -150.873582349652764

    Input parameters:
    -----------------
    Wave function   =     CCSD_T
    Reference wfn   =     UHF
    Brueckner       =     No
    Memory (Mbytes) =     4000.0
    Maxiter         =     50
    R_Convergence   =     1.0e-10
    E_Convergence   =     1.0e-10
    Restart         =     Yes
    DIIS            =     Yes
    AO Basis        =     NONE
    ABCD            =     NEW
    Cache Level     =     2
    Cache Type      =     LRU
    Print Level     =     1
    Num. of threads =     12
    # Amps to Print =     10
    Print MP2 Amps? =     No
    Analyze T2 Amps =     No
    Print Pair Ener =     No
    Local CC        =     No
    SCS-MP2         =     False
    SCSN-MP2        =     False
    SCS-CCSD        =     False

MP2 correlation energy -0.4157309682596585
                Solving CC Amplitude Equations
                ------------------------------
  Iter             Energy              RMS        T1Diag      D1Diag    New D1Diag    D2Diag
  ----     ---------------------    ---------   ----------  ----------  ----------   --------
     0        -0.415730968259658    0.000e+00    0.000000    0.000000    0.000000    0.000000
     1        -0.426582848274151    5.640e-02    0.010365    0.000000    0.000000    0.000000
     2        -0.434674551179504    1.680e-02    0.010865    0.000000    0.000000    0.000000
     3        -0.436774777588767    8.412e-03    0.012682    0.000000    0.000000    0.000000
     4        -0.436650879054082    2.492e-03    0.013026    0.000000    0.000000    0.000000
     5        -0.436638848549714    1.259e-03    0.013168    0.000000    0.000000    0.000000
     6        -0.436664295569163    4.983e-04    0.013182    0.000000    0.000000    0.000000
     7        -0.436668415679653    2.245e-04    0.013171    0.000000    0.000000    0.000000
     8        -0.436669166295589    6.826e-05    0.013165    0.000000    0.000000    0.000000
     9        -0.436670383653397    2.786e-05    0.013165    0.000000    0.000000    0.000000
    10        -0.436669211038052    1.053e-05    0.013165    0.000000    0.000000    0.000000
    11        -0.436669321338354    5.185e-06    0.013165    0.000000    0.000000    0.000000
    12        -0.436669282079165    2.521e-06    0.013165    0.000000    0.000000    0.000000
    13        -0.436669275260753    1.352e-06    0.013165    0.000000    0.000000    0.000000
    14        -0.436669301936152    6.364e-07    0.013165    0.000000    0.000000    0.000000
    15        -0.436669300534289    1.725e-07    0.013165    0.000000    0.000000    0.000000
    16        -0.436669300395117    1.053e-07    0.013165    0.000000    0.000000    0.000000
    17        -0.436669301191579    2.984e-08    0.013165    0.000000    0.000000    0.000000
    18        -0.436669300769652    1.375e-08    0.013165    0.000000    0.000000    0.000000
    19        -0.436669300532296    4.299e-09    0.013165    0.000000    0.000000    0.000000
    20        -0.436669300508186    1.834e-09    0.013165    0.000000    0.000000    0.000000
    21        -0.436669300494252    7.550e-10    0.013165    0.000000    0.000000    0.000000
    22        -0.436669300493030    3.084e-10    0.013165    0.000000    0.000000    0.000000
    23        -0.436669300495953    1.394e-10    0.013165    0.000000    0.000000    0.000000
    24        -0.436669300495261    7.290e-11    0.013165    0.000000    0.000000    0.000000

    Iterations converged.


    Largest TIA Amplitudes:
              5  67        -0.0136791575
              5  65        -0.0121538360
              2   2         0.0098347001
              5  66        -0.0087977773
              6  93        -0.0087401731
              4  65        -0.0083239078
              3   6        -0.0076823038
              3   1         0.0060535973
              2   6        -0.0057382040
              2   4        -0.0054221987

    Largest Tia Amplitudes:
              4  68        -0.0137478216
              4  66        -0.0133621423
              2   6        -0.0088528680
              4  65        -0.0078224205
              2   2         0.0065703793
              3   2        -0.0057730099
              2   1         0.0053638291
              5 109         0.0051088714
              1  11        -0.0050522696
              4  82         0.0042920754

    Largest TIJAB Amplitudes:
      6   4 100  70         0.0171027385
      4   2  70  12         0.0125185508
      6   2 100  12        -0.0124562911
      6   4  55  22        -0.0115146583
      7   5  50  10        -0.0089195815
      6   4 115  81         0.0086528735
      4   0  70  18         0.0086252718
      6   4 100  81        -0.0085916019
      6   0 100  18        -0.0085792322
      7   3  97   6        -0.0085762376

    Largest Tijab Amplitudes:
      5   4  50  10        -0.0087290123
      5   2  99   6        -0.0082605515
      3   1  78  65        -0.0078886883
      4   2  70  10         0.0075609883
      3   1  69  65        -0.0074967385
      5   2 100   8        -0.0074838748
      5   4  99  68        -0.0074702696
      5   4  53  10        -0.0074577223
      5   4  99  71        -0.0074183499
      5   4  99  74        -0.0071166398

    Largest TIjAb Amplitudes:
      7   5  97  99        -0.0196303138
      2   3  12  12         0.0174183265
      4   3  70  12        -0.0169660101
      6   3 100  12         0.0168057465
      6   1  55  65         0.0166620465
      4   1  22  65         0.0166406322
      2   1  77  65         0.0165198913
      4   1  70  18        -0.0158623260
      6   1 100  18         0.0157428292
      7   5 103  99        -0.0151480154

    SCF energy       (wfn)                    = -150.873582349650889
    Reference energy (file100)                = -150.873582349652764

    Opposite-spin MP2 correlation energy      =   -0.314151135929770
    Same-spin MP2 correlation energy          =   -0.101579832329889
    MP2 correlation energy                    =   -0.415730968259658
      * MP2 total energy                      = -151.289313317912416

    Opposite-spin CCSD correlation energy     =   -0.341827483410646
    Same-spin CCSD correlation energy         =   -0.094841817084615
    CCSD correlation energy                   =   -0.436669300495261
      * CCSD total energy                     = -151.310251650148018

            **************************
            *                        *
            *        CCTRIPLES       *
            *                        *
            **************************


    Wave function   =    CCSD_T
    Reference wfn   =      UHF

    Nuclear Rep. energy (wfn)                =   21.919954964263368
    SCF energy          (wfn)                = -150.873582349650889
    Reference energy    (file100)            = -150.873582349652764
    CCSD energy         (file100)            =   -0.436669300495261
    Total CCSD energy   (file100)            = -151.310251650148018

    Number of ijk index combinations:
    Spin Case AAA:                                  56
    Spin Case BBB:                                  20
    Spin Case AAB:                                 168
    Spin Case ABB:                                 120
    AAA (T) energy                             =   -0.000392651775052
    BBB (T) energy                             =   -0.000198091580473
    AAB (T) energy                             =   -0.006679189923826
    ABB (T) energy                             =   -0.004950228162946
    (T) energy                                   =   -0.012220161442297
      * CCSD(T) total energy                     = -151.322471811590333

Stephenergy -151.32247181159033
    Psi4 stopped on: Wednesday, 10 March 2021 10:54AM
    Psi4 wall time for execution: 0:01:39.20

*** Psi4 exiting successfully. Buy a developer a beer!
