 --invoking executable--
/apps/eb/cfour/2.1-iompi-2018a-serial/bin/xjoda


   *************************************************************************
         <<<     CCCCCC     CCCCCC   |||     CCCCCC     CCCCCC   >>>
       <<<      CCC        CCC       |||    CCC        CCC         >>>
      <<<      CCC        CCC        |||   CCC        CCC            >>>
    <<<        CCC        CCC        |||   CCC        CCC              >>>
      <<<      CCC        CCC        |||   CCC        CCC            >>>
       <<<      CCC        CCC       |||    CCC        CCC         >>>
         <<<     CCCCCC     CCCCCC   |||     CCCCCC     CCCCCC   >>>
   *************************************************************************

     ****************************************************************
     * CFOUR Coupled-Cluster techniques for Computational Chemistry *
     ****************************************************************
 

   Department of Chemistry                Institut fuer Physikalische Chemie
   University of Florida                  Universitaet Mainz
   Gainesville, FL 32611, USA             D-55099 Mainz, Germany

   Department of Chemistry                Fakultaet fuer Chemie und Biowiss.
   Johns Hopkins University               Karlsruher Institut fuer Technologie
   Baltimore, MD 21218, USA               D-76131 Karlsruhe, Germany

   Department of Chemistry                Department of Physical Chemistry
   Southern Methodist University          Eotvos Lorand University
   Dallas, TX 75275, USA                  H-1053 Budapest, Hungary

 
                       Version 2.1
 
                     c1-16.compute.lan                                 
                     Tue Feb  2 23:47:08 EST 2021                      
                     integer*8 version is running
 
********************************************************************************
*                          Input from ZMAT file                                *
********************************************************************************
CFOUR Optimization JOB                                                          
O   -0.984507161257    0.267466123609    0.000000000000                         
H   -0.441541206682   -0.520669349362    0.000000000000                         
O    0.984507161257   -0.267466123609    0.000000000000                         
H    0.441541206682    0.520669349362    0.000000000000                         
                                                                                
*CFOUR(CALC=CCSDT                                                               
       BASIS=AUG-PVTZ                                                           
       SCF_CONV=12                                                              
       CC_CONV=12                                                               
       SCF_MAXCYC=200                                                           
       CC_MAXCYC=150                                                            
       CC_PROGRAM=MRCC                                                          
       DERIV_LEVEL=1                                                            
       FROZEN_CORE=ON                                                           
       LINEQ_CONV=12                                                            
       OPT_MAXCYC=400                                                           
       REFERENCE=UHF                                                            
       MULTIPLICITY=3                                                           
       COORDINATES=CARTESIAN                                                    
       MEMORY=40                                                                
       MEM_UNIT=GB                                                              
       UNITS=ANGSTROM)                                                          
********************************************************************************
    -------------------------------------------------------------------
                    CFOUR Control Parameters 
    -------------------------------------------------------------------
        External           Internal           Value            Units
          Name               Name
    -------------------------------------------------------------------
       ABCDTYPE             IABCDT         STANDARD    [  0]    ***   
       ANHARMONIC           IANHAR         OFF         [  0]    ***   
       ANH_ALGORIT          IANALG         STANDARD    [  0]    ***   
       ANH_DERIVAT          IANDER         SECOND      [  1]    ***   
       ANH_MODE             ANHMOD         VIBRATION   [  0]    ***   
       ANH_STEPSIZ          ICUBST             50000          x 10-6  
       ANH_SYMMETR          IANHSM         ABELIAN     [  0]    ***   
       AO_LADDERS           IAOLAD         SINGLEPASS  [  1]    ***   
       AV_SCF               IAVSCF         OFF         [  0]    ***   
       BASIS                IBASIS         AUG-PVTZ    [ 34]    ***   
       BOTHVECTORS          BOTHVC         OFF         [  0]    ***   
       BOX_POTENT           IPIAB          OFF         [  0]    ***   
       BREIT                IBREIT         OFF         [  0]    ***   
       BRUCK_CONV           IBRTOL          10D-  4             ***   
       BRUECKNER            IBRKNR         OFF         [  0]    ***   
       BUFFERSIZE           IBUFFS              4096            ***   
       CACHE_RECS           ICHREC             10               ***   
       CALCLEVEL            ICLLVL         CCSDT       [ 18]    ***   
       CCORBOPT             ICCORB         OFF         [  0]  x 0.01  
       CC_CONV              ICCCNV          10D- 12             ***   
       CC_EXPORDER          ICCEOR              5               ***   
       CC_EXTRAPOL          ICCEXT         DIIS        [  1]    ***   
       CC_GUESS             ICCGES         MP2         [  0]    ***   
       CC_MAXCYC            ICCCYC            150              cycles 
       CC_PROGRAM           ICCPRO         MRCC        [  2]    ***   
       CHARGE               ICHRGE              0               ***   
       CHOLESKY             ICHOLE         OFF         [  0]    ***   
       CIS_CONV             ICISTL              5               ***   
       COMM_SIZE            IPSIZE            ***               ***   
       CONSTANT             ICONST         OLD         [  1]    ***   
       CONTINUUM            ICONTU         NONE        [  0]    ***   
       CONTRACTION          ICNTYP         GENERAL     [  1]    ***   
       COORDINATES          ICOORD         CARTESIAN   [  1]    ***   
       CPHF_CONVER          ICPHFT          10D- 16             ***   
       CPHF_MAXCYC          ICPHFC             64              cycles 
       CUBIC                ICUBIC         OFF         [  0]    ***   
       CURVILINEAR          ICURVY         OFF         [  0]    ***   
       DBOC                 IDBOC          OFF         [  0]    ***   
       DCT                  IDCT           OFF         [  0]    ***   
       DERIV_LEV            IDRLVL         FIRST       [  1]    ***   
       DEVMEM_SIZE          IDVMEM         *********           MByte  
       DIAG_MRCC            IEOMST          10D-  0             ***   
       DIFF_TYPE            IDIFTY         RELAXED     [  0]    ***   
       DIRECT               IDIRCT         OFF         [  0]    ***   
       DROPMO               IDRPMO      NONE         
       ECP                  IECP           OFF         [  0]    ***   
       EIGENVECTOR          IVEC                1               ***   
       EL_ANHARM            IELANH         OFF         [  0]    ***   
       EOMFOLLOW            IEOMSR         ENERGY      [  0]    ***   
       EOMIP                IEOMIP         OFF         [  0]    ***   
       EOMLEVEL             HBARFM         SAME        [  0]    ***   
       EOM_MRCC             IMRCCE         NEW         [  1]    ***   
       EOM_NONIT            EOMNON         OFF         [  0]    ***   
       EOM_NSING            IEOMSI          10D-  0             ***   
       EOM_NSTATES          IMRCCD         DAVIDSON    [  0]    ***   
       EOM_NTRIP            IEOMTR          10D-  0             ***   
       EOM_ORDER            IEXORD         ENERGY      [  0]    ***   
       EOM_PROPSTA          IEOMST              0               ***   
       ESTATE_CONV          IEXTOL          10D-  5             ***   
       ESTATE_DIAG          IEXDIG         ITERATIVE   [  0]    ***   
       ESTATE_LOCK          IESLOC         ON          [  1]    ***   
       ESTATE_MAXC          IEXMXC             40               ***   
       ESTATE_PROP          IEXPRP         OFF         [  0]    ***   
       EVAL_HESS            IRECAL              0            # of cyc.
       EXCITATION           IEXCIT              0               ***   
       EXCITE               IEXCIT         NONE        [  0]    ***   
       EXTERN_POT           IEXPOT         OFF         [  0]    ***   
       FCGRADNEW            IFCGNW         OFF         [  0]    ***   
       FC_FIELD             IFINFC              0             x 10-6  
       FD_CALTYPE           IFDCAL         GRADONLY    [  0]    ***   
       FD_PROJECT           IFDPRJ         OFF         [  1]    ***   
       FD_STEPSIZE          IDISFD              0            10-4 bohr
       FD_USEGROUP          IFDGRP         FULL        [  0]    ***   
       FILE_RECSIZ          IFLREC              4096           words  
       FINITE_PERT          IFIPER              0             x 10-6  
       FIXGEOM              IFIXGM         OFF         [  0]    ***   
       FOCK                 IFOCK          AO          [  1]    ***   
       FREQ_ALGORI          IVIALG         STANDARD    [  0]    ***   
       FROZEN_CORE          IFROCO         ON          [  1]    ***   
       GAMMA_ABCD           IGABCD         STORE       [  0]    ***   
       GAMMA_ABCI           IGABCI         STORE       [  0]    ***   
       GENBAS_1             IGNBS1              0               ***   
       GENBAS_2             IGNBS2              0               ***   
       GENBAS_3             IGNBS3              0               ***   
       GENBAS_4             IGNBS4              0               ***   
       GEO_CONV             ICONTL              5              H/bohr 
       GEO_MAXCYC           IOPTCY            400               ***   
       GEO_MAXSTEP          IMXSTP            300            millibohr
       GEO_METHOD           INR            SINGLE_POINT[  5]    ***   
       GIAO                 IGIAO          OFF         [  1]    ***   
       GIMIC                IGIMIC         OFF         [  0]    ***   
       GRID                 IGRID          OFF         [  0]    ***   
       GRID_ALGO            IGALGO         SERIAL      [  0]    ***   
       GUESS                IGUESS         MOREAD      [  0]    ***   
       HBAR                 IHBAR          OFF         [  0]    ***   
       HESS_TYPE            IHESTP         SCF         [  0]    ***   
       HF2_FILE             IHF2Fl         USE         [  1]    ***   
       HFSTABILITY          ISTABL         OFF         [  0]    ***   
       INCORE               INCORE         OFF         [  0]    ***   
       INPUT_MRCC           IMRCC          ON          [  1]    ***   
       INTEGRALS            INTTYP         VMOL        [  1]    ***   
       JODA_PRINT           IJPRNT              0               ***   
       KEYWORD_OUT          IDMPKW         NO          [  0]    ***   
       LINDEP_TOL           ILINDP              8               ***   
       LINEQ_CONV           IZTACN          10D- 12           cycles  
       LINEQ_EXPOR          ILMAXD              5               ***   
       LINEQ_MAXCY          ILMAXC            100               ***   
       LINEQ_TYPE           ILTYPE         DIIS        [  1]    ***   
       LOCK_ORBOCC          ILOCOC         OFF         [  0]    ***   
       MEMORY_SIZE          IMEMSZ         *********           words  
       MEM_UNIT             IMEMU          GB          [  3]    ***   
       MRCC                 IMRCCC         OFF         [  0]    ***   
       MULTIPLICTY          IMULTP              3               ***   
       NACOUPLING           IVCOUP         OFF         [  0]    ***   
       NEGEVAL              IDIE           ABORT       [  0]    ***   
       NEWNORM              INEWNO         OFF         [  0]    ***   
       NON-HF               INONHF         OFF         [  0]    ***   
       NTOP_TAMP            ITOPT2             15               ***   
       NUC_MODEL            INUCMO         POINT       [  0]    ***   
       OCCUPATION           IOCCU   ESTIMATED BY SCF 
       OPEN-SHELL           IOPEN          SPIN-ORBITAL[  0]    ***   
       OPTVIB               IOPTVB         OFF         [  0]    ***   
       ORBITALS             IORBTP         STANDARD    [  0]    ***   
       PARALLEL             IPARAL         ON          [  1]    ***   
       PARA_INT             IPINTS         ON          [  1]    ***   
       PARA_PRINT           IPPRIN              0               ***   
       PERT_ORB             IPTORB         CANONICAL   [  1]    ***   
       POINTS               IGRDFD              0               ***   
       PRINT                IPRNT               0               ***   
       PROPS                IPROPS         OFF         [  0]    ***   
       PROP_INTEGR          IINTYP         INTERNAL    [  0]    ***   
       PSI                  IPSI           OFF         [  0]    ***   
       QC_ALG               IQCALG         FLM         [  0]    ***   
       QC_LINALG            IQCLIN         TRIDIAG     [  2]    ***   
       QC_MAXCYC            IQCMAX          10D-100           cycles  
       QC_MAXSCFCY          IQCMSC          10D- 15           cycles  
       QC_RTRUST            IQCRTR          10D-  0           x 10-3  
       QC_SKIPSCF           IQCSKI         OFF         [  0]    ***   
       QC_START             IQCSTA          10D-  1             ***   
       QRHFGUESS            IQGUES         OFF         [  0]    ***   
       QUARTIC              IQUART         OFF         [  0]    ***   
       RAMAN_INT            IRAMIN         OFF         [  0]    ***   
       RAMAN_ORB            IRAMRE         UNRELAXED   [  0]    ***   
       RDO                  IRDOFM         ON          [  1]    ***   
       REDUCE_REPR          REDREP         Ir          [  0]    ***   
       REFERENCE            IREFNC         UHF         [  1]    ***   
       RELATIVIST           IRELAT         OFF         [  0]    ***   
       RELAX_DENS           IRDENS         ON          [  1]    ***   
       RESET_FLAGS          IRESET         OFF         [  0]    ***   
       RESTART_CC           ICCRES         OFF         [  0]    ***   
       ROT_EVEC             ROTVEC              0               ***   
       SAVE_INTS            ISVINT         OFF         [  0]    ***   
       SCALE_ON             ISTCRT              0               ***   
       SCF_CONV             ISCFCV          10D- 12             ***   
       SCF_DAMPING          IDAMP               0             x 10-3  
       SCF_EXPORDE          IRPPOR              6               ***   
       SCF_EXPSTAR          IRPPLS              8               ***   
       SCF_EXTRAPO          IRPP           ON          [  1]    ***   
       SCF_MAXCYC           ISCFCY            200              cycles 
       SCF_NOSTOP           ISCFST         OFF         [  0]    ***   
       SCF_PRINT            ISCFPR              0               ***   
       SCF_PROG             ISCFPR         SCF         [  0]    ***   
       SD_FIELD             IFINSD              0             x 10-6  
       SOPERT               IPERSO         OFF         [  0]    ***   
       SPHERICAL            IDFGHI         ON          [  1]    ***   
       SPINORBIT            ISOCAL         OFF         [  0]    ***   
       SPINROTATIO          ISRCON         OFF         [  0]    ***   
       SPIN_FLIP            ISPFLP         OFF         [  0]    ***   
       SPIN_ORBIT           ISPORB         OFF         [  0]    ***   
       SPIN_SCAL            ISCSMP         OFF         [  0]    ***   
       STEEPSCALE           ISTPSC              1000          x 10-3  
       SUBGROUP             ISUBGP         DEFAULT     [  0]    ***   
       SUBGRPAXIS           ISBXYZ         X           [  0]    ***   
       SYMMETRY             ISYM           ON          [  0]    ***   
       SYM_CHECK            ISYMCK         OVERRIDE    [  1]    ***   
       T3_EXTRAPOL          IT3EXT         OFF         [  0]    ***   
       T4_EXTRAPOL          IT4EXP         OFF         [  0]    ***   
       TAMP_SUM             IEVERY              5               ***   
       TESTSUITE            ITESTS         OFF         [  0]    ***   
       THERMOCH             ITHERM         OFF         [  0]    ***   
       TOL_CHOLESK          ITOLCH          10D-  4             ***   
       TRANGRAD             IRESRM         OFF         [  0]    ***   
       TRANS_INV            ITRAIN         USE         [  0]    ***   
       TREAT_PERT           ITREAT         SIMULTANEOUS[  0]    ***   
       TRIP_ALGORI          ITRALG         NORMAL      [  0]    ***   
       UIJ_THRESHO          IUIJTH              1               ***   
       UNITS                IUNITS         ANGSTROM    [  0]    ***   
       UNOS                 IUNOS          OFF         [  0]    ***   
       UPDATE_HESS          IHUPDT         ON          [  1]    ***   
       VIBPHASE             ISETPH         STANDARD    [  0]    ***   
       VIBRATION            IVIB           NO          [  0]    ***   
       VIB_ALGORIT          IGEALG         STANDARD    [  0]    ***   
       VNATORB              IVNORB         OFF         [  0]    ***   
       VTRAN                IVTRAN         FULL/PARTIAL[  0]    ***   
       XFIELD               IXEFLD              0             x 10-6  
       XFORM_TOL            IXFTOL          10D- 11             ***   
       YFIELD               IYEFLD              0             x 10-6  
       ZFIELD               IZEFLD              0             x 10-6  
       ZSCALE_EXP           IZEXPS         OFF         [  0]    ***   
    -------------------------------------------------------------------
  @GETXYZ-I,     4 atoms read from ZMAT.
   Rotational constants (in cm-1): 
          0.4924210981             0.5036971014            21.9963647044
   Rotational constants (in MHz): 
      14762.4152058556         15100.4613261253        659434.5165636329
********************************************************************************
   The full molecular point group is C2h .
   The largest Abelian subgroup of the full molecular point group is C2h .
   The computational point group is C2h .
********************************************************************************


 ----------------------------------------------------------------
         Coordinates used in calculation (QCOMP) 
 ----------------------------------------------------------------
 Z-matrix   Atomic            Coordinates (in bohr)
  Symbol    Number           X              Y              Z
 ----------------------------------------------------------------
     O         8        -1.92776718     0.02127564     0.00000000
     H         1        -0.56010809    -1.16215016     0.00000000
     O         8         1.92776718    -0.02127564     0.00000000
     H         1         0.56010809     1.16215016     0.00000000
 ----------------------------------------------------------------
 
   Interatomic distance matrix (Angstroms) 
 
                 O             H             O             H    
                [ 1]        [ 2]        [ 3]        [ 4]
  O    [ 1]     0.00000
  H    [ 2]     0.95706     0.00000
  O    [ 3]     2.04039     1.44835     0.00000
  H    [ 4]     1.44835     1.36537     0.95706     0.00000
 rotcon2
   Rotational constants (in cm-1): 
         21.9963647044             0.5036971014             0.4924210981
   Rotational constants (in MHz): 
     659434.5165636358         15100.4613261253         14762.4152058556
  There are   2 frozen-core orbitals.
  There are   2 frozen-core orbitals.
  There are  138 basis functions.
 @CHECKOUT-I, Total execution time (CPU/WALL):        0.17/       0.22 seconds.
--executable xjoda finished with status     0 in        0.26 seconds (walltime).
 --invoking executable--
/apps/eb/cfour/2.1-iompi-2018a-serial/bin/xvmol
 SERIAL VERSION OF MOLECULE STARTED
********************************************************************************
                    INPUT FROM MOL FILE
********************************************************************************
INTGRL        1    0    1    0    0    0    0    0    0                         
         *** CFOUR Program System (Release V0.1) ***                            
CFOUR Optimization JOB                                                          
    2    2 Z  XY      0.10E-08              0    0                              
   9999.00      3.00                                                            
          8.00000000    1    4    1    1    1    1                              
O #1  -1.927767183486281   0.021275644471051   0.000000000000000                
   11    5                                                                      
   15330.0000000000       5.080000000000000E-004 -1.150000000000000E-004        
  0.000000000000000E+000  0.000000000000000E+000  0.000000000000000E+000        
   2299.00000000000       3.929000000000000E-003 -8.950000000000000E-004        
  0.000000000000000E+000  0.000000000000000E+000  0.000000000000000E+000        
   522.400000000000       2.024300000000000E-002 -4.636000000000000E-003        
  0.000000000000000E+000  0.000000000000000E+000  0.000000000000000E+000        
   147.300000000000       7.918100000000000E-002 -1.872400000000000E-002        
  0.000000000000000E+000  0.000000000000000E+000  0.000000000000000E+000        
   47.5500000000000       0.230687000000000      -5.846300000000000E-002        
  0.000000000000000E+000  0.000000000000000E+000  0.000000000000000E+000        
   16.7600000000000       0.433118000000000      -0.136463000000000             
  0.000000000000000E+000  0.000000000000000E+000  0.000000000000000E+000        
   6.20700000000000       0.350260000000000      -0.175740000000000             
  0.000000000000000E+000  0.000000000000000E+000  0.000000000000000E+000        
   1.75200000000000       4.272800000000000E-002  0.160934000000000             
   1.00000000000000       0.000000000000000E+000  0.000000000000000E+000        
  0.688200000000000      -8.154000000000000E-003  0.603418000000000             
  0.000000000000000E+000  0.000000000000000E+000  0.000000000000000E+000        
  0.238400000000000       2.381000000000000E-003  0.378765000000000             
  0.000000000000000E+000   1.00000000000000       0.000000000000000E+000        
  7.376000000000001E-002  0.000000000000000E+000  0.000000000000000E+000        
  0.000000000000000E+000  0.000000000000000E+000   1.00000000000000             
    6    4                                                                      
   34.4600000000000       1.592800000000000E-002  0.000000000000000E+000        
  0.000000000000000E+000  0.000000000000000E+000                                
   7.74900000000000       9.974000000000000E-002  0.000000000000000E+000        
  0.000000000000000E+000  0.000000000000000E+000                                
   2.28000000000000       0.310492000000000       0.000000000000000E+000        
  0.000000000000000E+000  0.000000000000000E+000                                
  0.715600000000000       0.491026000000000        1.00000000000000             
  0.000000000000000E+000  0.000000000000000E+000                                
  0.214000000000000       0.336337000000000       0.000000000000000E+000        
   1.00000000000000       0.000000000000000E+000                                
  5.974000000000000E-002  0.000000000000000E+000  0.000000000000000E+000        
  0.000000000000000E+000   1.00000000000000                                     
    3    3                                                                      
   2.31400000000000        1.00000000000000       0.000000000000000E+000        
  0.000000000000000E+000                                                        
  0.645000000000000       0.000000000000000E+000   1.00000000000000             
  0.000000000000000E+000                                                        
  0.214000000000000       0.000000000000000E+000  0.000000000000000E+000        
   1.00000000000000                                                             
    2    2                                                                      
   1.42800000000000        1.00000000000000       0.000000000000000E+000        
  0.500000000000000       0.000000000000000E+000   1.00000000000000             
          1.00000000    1    3    1    1    1                                   
H #2  -0.560108091323936  -1.162150156370785   0.000000000000000                
    6    4                                                                      
   33.8700000000000       6.068000000000000E-003  0.000000000000000E+000        
  0.000000000000000E+000  0.000000000000000E+000                                
   5.09500000000000       4.530800000000000E-002  0.000000000000000E+000        
  0.000000000000000E+000  0.000000000000000E+000                                
   1.15900000000000       0.202822000000000       0.000000000000000E+000        
  0.000000000000000E+000  0.000000000000000E+000                                
  0.325800000000000       0.503903000000000        1.00000000000000             
  0.000000000000000E+000  0.000000000000000E+000                                
  0.102700000000000       0.383421000000000       0.000000000000000E+000        
   1.00000000000000       0.000000000000000E+000                                
  2.526000000000000E-002  0.000000000000000E+000  0.000000000000000E+000        
  0.000000000000000E+000   1.00000000000000                                     
    3    3                                                                      
   1.40700000000000        1.00000000000000       0.000000000000000E+000        
  0.000000000000000E+000                                                        
  0.388000000000000       0.000000000000000E+000   1.00000000000000             
  0.000000000000000E+000                                                        
  0.102000000000000       0.000000000000000E+000  0.000000000000000E+000        
   1.00000000000000                                                             
    2    2                                                                      
   1.05700000000000        1.00000000000000       0.000000000000000E+000        
  0.247000000000000       0.000000000000000E+000   1.00000000000000             
FINISH                                                                          
 
********************************************************************************
 ONE- AND TWO-ELECTRON INTEGRALS OVER SYMMETRY-ADAPTED AOS ARE CALCULATED.

  SPHERICAL HARMONICS ARE USED.
  
  INTEGRALS LESS THAN  0.10E-13 ARE NEGLECTED.

  NUCLEAR REPULSION ENERGY :   31.6785962843 A.U.
  @MOLECU-I, ONE ELECTRON INTEGRALS (CPU/WALL):        0.04/       0.04 SECONDS.
  @TWOEL-I,    1246094 INTEGRALS OF SYMMETRY TYPE  I I I I
  @TWOEL-I,    4620815 INTEGRALS OF SYMMETRY TYPE  I J I J
  @TWOEL-I,    2438161 INTEGRALS OF SYMMETRY TYPE  I I J J
  @TWOEL-I,    3358092 INTEGRALS OF SYMMETRY TYPE  I J K L
  @TWOEL-I, TOTAL NUMBER OF 2-E INTEGRALS   11663162.
  @MOLECU-I, TWO ELECTRON INTEGRALS (CPU/WALL):        2.67/       2.83 SECONDS.
 @CHECKOUT-I, Total execution time (CPU/WALL):        2.72/       2.88 seconds.

Running with 12 threads/proc

--executable xvmol finished with status     0 in        2.92 seconds (walltime).
 --invoking executable--
/apps/eb/cfour/2.1-iompi-2018a-serial/bin/xvmol2ja
 @GETMEM-I,  Allocated   38146 MB of main memory.
 @CHECKOUT-I, Total execution time (CPU/WALL):        0.01/       0.02 seconds.
--executable xvmol2ja finished with status     0 in        0.06 seconds (walltime).
 --invoking executable--
/apps/eb/cfour/2.1-iompi-2018a-serial/bin/xvscf
  There are  138 functions in the AO basis.

  There are 4 irreducible representations.

       Irrep        # of functions
         1                 46
         2                 23
         3                 46
         4                 23


  Parameters for SCF calculation: 
        SCF reference function:  UHF  
  Maximum number of iterations:  200
     Full symmetry point group: C2h 
     Computational point group: C2h 
        Initial density matrix: CORE                   
     SCF convergence tolerance: 10**(-12)
  DIIS convergence acceleration:  ON
          Latest start for DIIS:   8
                     DIIS order:   6

  Memory information:     904766 words required.
  Fock matrices are constructed from AO integral file.
 @GETMEM-I,  Allocated       6 MB of main memory.
  Initialization and symmetry analysis required      0.002 seconds.

  @INITGES-I, Occupancies from core Hamiltonian:

          Alpha population by irrep:   4    1    4    1
           Beta population by irrep:   3    1    3    1


 total no. of electrons in initial guess :  0.000000000000000E+000
 total no. of electrons in initial guess :  0.000000000000000E+000
  --------------------------------------------------------------------
  Iteration         Total Energy            Largest Density Difference
  --------------------------------------------------------------------
       0            31.678596284272746              0.0000000000D+00
   current occupation vector 
     4  1  4  1
     3  1  3  1
       1          -128.727781283007147              0.2987478184D+01
   current occupation vector 
     4  1  4  1
     3  1  3  1
       2          -129.885750273059045              0.2979736078D+02
   current occupation vector 
     5  1  4  0
     3  1  4  0
       3          -145.209398532625443              0.2980467375D+02
   current occupation vector 
     4  1  4  1
     4  1  3  0
       4          -143.555530363863625              0.1646667643D+02
   current occupation vector 
     5  1  4  0
     4  0  4  0
       5          -148.586797360489982              0.1646708249D+02
   current occupation vector 
     4  1  4  1
     4  1  3  0
       6          -149.910171095923801              0.8585507808D+00
   current occupation vector 
     4  1  4  1
     4  1  3  0
       7          -150.507841233657700              0.3266699456D+00
   current occupation vector 
     4  1  4  1
     4  1  3  0
       8          -150.663886827908101              0.2101852875D+00
   current occupation vector 
     4  1  4  1
     4  1  3  0
       9          -150.708227498876568              0.5866073984D-01
   current occupation vector 
     4  1  4  1
     4  1  3  0
      10          -150.708814970855570              0.4607384364D-02
   current occupation vector 
     4  1  4  1
     4  1  3  0
      11          -150.708949906921362              0.3272092527D-02
   current occupation vector 
     4  1  4  1
     4  1  3  0
      12          -150.708959091224074              0.9120550996D-03
   current occupation vector 
     4  1  4  1
     4  1  3  0
      13          -150.708960006842915              0.2858486419D-03
   current occupation vector 
     4  1  4  1
     4  1  3  0
      14          -150.708960260537538              0.2246143145D-03
   current occupation vector 
     4  1  4  1
     4  1  3  0
      15          -150.708960296368019              0.8448616148D-04
   current occupation vector 
     4  1  4  1
     4  1  3  0
      16          -150.708960299630178              0.2467794558D-04
   current occupation vector 
     4  1  4  1
     4  1  3  0
      17          -150.708960299806847              0.5205188708D-05
   current occupation vector 
     4  1  4  1
     4  1  3  0
      18          -150.708960299849821              0.2818263999D-05
   current occupation vector 
     4  1  4  1
     4  1  3  0
      19          -150.708960299860706              0.1492507857D-05
   current occupation vector 
     4  1  4  1
     4  1  3  0
      20          -150.708960299859740              0.3683486665D-06
   current occupation vector 
     4  1  4  1
     4  1  3  0
      21          -150.708960299862866              0.1137086675D-06
   current occupation vector 
     4  1  4  1
     4  1  3  0
      22          -150.708960299863293              0.5582305851D-07
   current occupation vector 
     4  1  4  1
     4  1  3  0
      23          -150.708960299860848              0.2348555089D-07
   current occupation vector 
     4  1  4  1
     4  1  3  0
      24          -150.708960299862326              0.4030500766D-08
   current occupation vector 
     4  1  4  1
     4  1  3  0
      25          -150.708960299862355              0.6445750600D-09
   current occupation vector 
     4  1  4  1
     4  1  3  0
      26          -150.708960299860877              0.5259767066D-09
   current occupation vector 
     4  1  4  1
     4  1  3  0
      27          -150.708960299862298              0.2532905552D-09
   current occupation vector 
     4  1  4  1
     4  1  3  0
      28          -150.708960299861701              0.2616679096D-10
   current occupation vector 
     4  1  4  1
     4  1  3  0
      29          -150.708960299859598              0.2284994416D-10
   current occupation vector 
     4  1  4  1
     4  1  3  0
      30          -150.708960299860706              0.8655381967D-11
   current occupation vector 
     4  1  4  1
     4  1  3  0
      31          -150.708960299860763              0.5775747935D-11
   current occupation vector 
     4  1  4  1
     4  1  3  0
      32          -150.708960299861019              0.5050189433D-11
   current occupation vector 
     4  1  4  1
     4  1  3  0
      33          -150.708960299861388              0.2395091070D-11
   current occupation vector 
     4  1  4  1
     4  1  3  0
      34          -150.708960299860792              0.7902872801D-11
   current occupation vector 
     4  1  4  1
     4  1  3  0
      35          -150.708960299861360              0.4473806742D-11
   current occupation vector 
     4  1  4  1
     4  1  3  0
      36          -150.708960299862383              0.9597173750D-11
   current occupation vector 
     4  1  4  1
     4  1  3  0
      37          -150.708960299861502              0.5742351039D-11
   current occupation vector 
     4  1  4  1
     4  1  3  0
      38          -150.708960299862326              0.1272622285D-10
   current occupation vector 
     4  1  4  1
     4  1  3  0
      39          -150.708960299860394              0.1191793192D-10
   current occupation vector 
     4  1  4  1
     4  1  3  0
      40          -150.708960299861161              0.2226785423D-10
   current occupation vector 
     4  1  4  1
     4  1  3  0
      41          -150.708960299862412              0.1057673393D-10
   current occupation vector 
     4  1  4  1
     4  1  3  0
      42          -150.708960299860848              0.1574263289D-10
   current occupation vector 
     4  1  4  1
     4  1  3  0
      43          -150.708960299861076              0.2744066085D-10
   current occupation vector 
     4  1  4  1
     4  1  3  0
      44          -150.708960299861928              0.5854049190D-10
   current occupation vector 
     4  1  4  1
     4  1  3  0
      45          -150.708960299861104              0.3009911764D-11
   current occupation vector 
     4  1  4  1
     4  1  3  0
      46          -150.708960299859967              0.3275443805D-10
   current occupation vector 
     4  1  4  1
     4  1  3  0
      47          -150.708960299860934              0.2131244140D-10
   current occupation vector 
     4  1  4  1
     4  1  3  0
      48          -150.708960299861445              0.1314105075D-11
   current occupation vector 
     4  1  4  1
     4  1  3  0
      49          -150.708960299860308              0.3010799943D-11
   current occupation vector 
     4  1  4  1
     4  1  3  0
      50          -150.708960299860678              0.3279536365D-11
   current occupation vector 
     4  1  4  1
     4  1  3  0
      51          -150.708960299860706              0.1537117655D-11
   current occupation vector 
     4  1  4  1
     4  1  3  0
      52          -150.708960299861161              0.6389791474D-11
   current occupation vector 
     4  1  4  1
     4  1  3  0
      53          -150.708960299860905              0.3264707948D-11
   current occupation vector 
     4  1  4  1
     4  1  3  0
      54          -150.708960299860905              0.1127167804D-11
   current occupation vector 
     4  1  4  1
     4  1  3  0
      55          -150.708960299860507              0.1981081965D-11
   current occupation vector 
     4  1  4  1
     4  1  3  0
      56          -150.708960299861531              0.2538066979D-11
   current occupation vector 
     4  1  4  1
     4  1  3  0
      57          -150.708960299861928              0.4106173734D-11
   current occupation vector 
     4  1  4  1
     4  1  3  0
      58          -150.708960299861303              0.7330497320D-11
   current occupation vector 
     4  1  4  1
     4  1  3  0
      59          -150.708960299861531              0.1042788078D-10
   current occupation vector 
     4  1  4  1
     4  1  3  0
      60          -150.708960299861332              0.4880068571D-11
   current occupation vector 
     4  1  4  1
     4  1  3  0
      61          -150.708960299860877              0.1146840956D-10
   current occupation vector 
     4  1  4  1
     4  1  3  0
      62          -150.708960299860735              0.7603535856D-11
   current occupation vector 
     4  1  4  1
     4  1  3  0
      63          -150.708960299861417              0.7964212623D-11
   current occupation vector 
     4  1  4  1
     4  1  3  0
      64          -150.708960299860621              0.6245226558D-11
   current occupation vector 
     4  1  4  1
     4  1  3  0
      65          -150.708960299860820              0.8111206151D-11
   current occupation vector 
     4  1  4  1
     4  1  3  0
      66          -150.708960299860905              0.1029482055D-10
   current occupation vector 
     4  1  4  1
     4  1  3  0
      67          -150.708960299861019              0.5628518485D-11
   current occupation vector 
     4  1  4  1
     4  1  3  0
      68          -150.708960299861388              0.2406172483D-11
   current occupation vector 
     4  1  4  1
     4  1  3  0
      69          -150.708960299860763              0.8394174245D-11
   current occupation vector 
     4  1  4  1
     4  1  3  0
      70          -150.708960299860621              0.2596899085D-10
   current occupation vector 
     4  1  4  1
     4  1  3  0
      71          -150.708960299861360              0.1354148044D-10
   current occupation vector 
     4  1  4  1
     4  1  3  0
      72          -150.708960299860678              0.9470280116D-10
   current occupation vector 
     4  1  4  1
     4  1  3  0
      73          -150.708960299861417              0.5383066215D-10
   current occupation vector 
     4  1  4  1
     4  1  3  0

  SCF has converged.

 Density matrix saved to file den.dat
 total alpha spin electron number:   9.99999999999997     
 total  beta spin electron number:   8.00000000000000     
     E(SCF)=      -150.708960299861189              0.9612935448D-12


  Final occupancies:

     Alpha population by irrep:   4    1    4    1
      Beta population by irrep:   4    1    3    0


  Eigenvector printing suppressed.


       The average multiplicity is    3.0784330
  The expectation value of S**2 is    2.1191875

 @PUTMOS-I, Writing converged MOs to NEWMOS. 
 @PUTMOS-I, Symmetry   1 Full Blocks 11 Partial Blocksize   2
 @PUTMOS-I, Symmetry   2 Full Blocks  5 Partial Blocksize   3
 @PUTMOS-I, Symmetry   3 Full Blocks 11 Partial Blocksize   2
 @PUTMOS-I, Symmetry   4 Full Blocks  5 Partial Blocksize   3
 @PUTFOCK-I, Writing converged Fock matrix to NEWFOCK. 
 @PUTFOCK-I, Symmetry   1 Full Blocks 11 Partial Blocksize   2
 @PUTFOCK-I, Symmetry   2 Full Blocks  5 Partial Blocksize   3
 @PUTFOCK-I, Symmetry   3 Full Blocks 11 Partial Blocksize   2
 @PUTFOCK-I, Symmetry   4 Full Blocks  5 Partial Blocksize   3


 
  ORBITAL EIGENVALUES (ALPHA)  (1H = 27.2113834 eV)

       MO #        E(hartree)               E(eV)           FULLSYM    COMPSYM
       ----   --------------------   --------------------   -------   ---------
    1    70         -20.7018704837        -563.3265348295      Bu        Bu (3)
    2     1         -20.7018172837        -563.3250871839      Ag        Ag (1)
    3     2          -1.5287764460         -41.6001220052      Ag        Ag (1)
    4    71          -1.4089236478         -38.3387615627      Bu        Bu (3)
    5     3          -0.8280798035         -22.5331970179      Ag        Ag (1)
    6    72          -0.7541554535         -20.5216131896      Bu        Bu (3)
    7    47          -0.7005994762         -19.0642809554      Au        Au (2)
    8   116          -0.6532125285         -17.7748165557      Bg        Bg (4)
    9     4          -0.6298346280         -17.1386715411      Ag        Ag (1)
   10    73          -0.6262024561         -17.0398351192      Bu        Bu (3)
  +++++++++++++++++++++++++++++++++++++++++++++++++++++++++++++++++++++++++++++
   11     5           0.0368117041           1.0016973940      Ag        Ag (1)
   12    74           0.0511391803           1.3915678417      Bu        Bu (3)
   13    75           0.1123443586           3.0570454156      Bu        Bu (3)
   14    48           0.1259568943           3.4274613427      Au        Au (2)
   15     6           0.1598853487           4.3507015247      Ag        Ag (1)
   16     7           0.1622683554           4.4155464330      Ag        Ag (1)
   17   117           0.1946319290           5.2962040417      Bg        Bg (4)
   18    76           0.1964462865           5.3455752198      Bu        Bu (3)
   19     8           0.1980152389           5.3882685834      Ag        Ag (1)
   20   118           0.2723299400           7.4104744079      Bg        Bg (4)
   21    77           0.2765137164           7.5243207531      Bu        Bu (3)
   22     9           0.2766434965           7.5278522477      Ag        Ag (1)
   23    78           0.3103508746           8.4450766374      Bu        Bu (3)
   24    49           0.3479143073           9.4672296074      Au        Au (2)
   25    79           0.3867373382          10.5236579857      Bu        Bu (3)
   26    10           0.4496156544          12.2346639553      Ag        Ag (1)
   27    11           0.4695475866          12.7770394037      Ag        Ag (1)
   28    80           0.4881634234          13.2836020770      Bu        Bu (3)
   29    81           0.5466469284          14.8750191544      Bu        Bu (3)
   30    12           0.6437931789          17.5185030211      Ag        Ag (1)
   31    50           0.6583228951          17.9138767008      Au        Au (2)
   32    51           0.6996718762          19.0390396764      Au        Au (2)
   33   119           0.7206418160          19.6096607492      Bg        Bg (4)
   34    82           0.7389892833          20.1089207153      Bu        Bu (3)
   35    13           0.7510401285          20.4368408851      Ag        Ag (1)
   36    14           0.7963004274          21.6684362317      Ag        Ag (1)
   37    83           0.8256577244          22.4672888959      Bu        Bu (3)
   38   120           0.8263657883          22.4865562945      Bg        Bg (4)
   39    52           0.8992924901          24.4709927362      Au        Au (2)
   40    84           0.9030877583          24.5742672337      Bu        Bu (3)
   41    15           0.9066324192          24.6707223626      Ag        Ag (1)
   42    85           0.9224318847          25.1006476745      Bu        Bu (3)
   43    53           0.9669184086          26.3111875335      Au        Au (2)
   44   121           0.9741119972          26.5069350311      Bg        Bg (4)
   45    16           0.9786359978          26.6300393453      Ag        Ag (1)
   46    17           1.0216588764          27.8007513894      Ag        Ag (1)
   47    86           1.0681107220          29.0647703692      Bu        Bu (3)
   48   122           1.0752289566          29.2584673819      Bg        Bg (4)
   49    18           1.1035761624          30.0298340675      Ag        Ag (1)
   50    87           1.1578535559          31.5067970313      Bu        Bu (3)
   51   123           1.2020746536          32.7101142740      Bg        Bg (4)
   52    88           1.2248071627          33.3286972944      Bu        Bu (3)
   53    54           1.3237248932          36.0203855848      Au        Au (2)
   54    19           1.3452178407          36.6052384198      Ag        Ag (1)
   55    20           1.3948220582          37.9550377994      Ag        Ag (1)
   56    89           1.4303560272          38.9219662555      Bu        Bu (3)
   57    21           1.4507511833          39.4769466675      Ag        Ag (1)
   58    55           1.4807692164          40.2937788750      Au        Au (2)
   59   124           1.5533867889          42.2698034811      Bg        Bg (4)
   60    22           1.6836227032          45.8137028767      Ag        Ag (1)
   61    90           1.8094759971          49.2383451101      Bu        Bu (3)
   62    91           1.9744879741          53.7285492818      Bu        Bu (3)
   63    23           2.0953417806          57.0171485454      Ag        Ag (1)
   64    56           2.1270386489          57.8796641813      Au        Au (2)
   65    92           2.1418977516          58.2840009224      Bu        Bu (3)
   66   125           2.1518881087          58.5558523598      Bg        Bg (4)
   67    93           2.2173145330          60.3361958759      Bu        Bu (3)
   68    57           2.2309792609          60.7080320271      Au        Au (2)
   69   126           2.2741852510          61.8837267881      Bg        Bg (4)
   70    24           2.2914471867          62.3534479371      Ag        Ag (1)
   71    58           2.2956259861          62.4671588506      Au        Au (2)
   72    25           2.3938311111          65.1394561590      Ag        Ag (1)
   73    94           2.3983574537          65.2626242038      Bu        Bu (3)
   74    26           2.4271565591          66.0462877004      Ag        Ag (1)
   75    95           2.4405834780          66.4116527406      Bu        Bu (3)
   76    96           2.4586676277          66.9037474707      Bu        Bu (3)
   77    59           2.5148165413          68.4316370848      Au        Au (2)
   78    27           2.5176952317          68.5099702346      Ag        Ag (1)
   79   127           2.5227444290          68.6473658769      Bg        Bg (4)
   80    97           2.5851112163          70.3444524381      Bu        Bu (3)
   81    28           2.6451305911          71.9776626573      Ag        Ag (1)
   82   128           2.7275312365          74.2198982114      Bg        Bg (4)
   83    60           2.7447458689          74.6883321732      Au        Au (2)
   84    29           2.7933061958          76.0097258489      Ag        Ag (1)
   85   129           2.8231418793          76.8215960705      Bg        Bg (4)
   86    30           2.8905363847          78.6554937961      Ag        Ag (1)
   87    98           3.1675852031          86.1943754139      Bu        Bu (3)
   88    99           3.2602008233          88.7145745635      Bu        Bu (3)
   89    31           3.8341577622         104.3327368843      Ag        Ag (1)
   90   100           3.9145809506         106.5211630974      Bu        Bu (3)
   91    32           3.9655686195         107.9086081029      Ag        Ag (1)
   92   130           4.0297671899         109.6555400172      Bg        Bg (4)
   93   101           4.0427123735         110.0077963721      Bu        Bu (3)
   94    61           4.0502584654         110.2131359719      Au        Au (2)
   95   131           4.2605807327         115.9362958229      Bg        Bg (4)
   96    62           4.3846559410         119.3125538875      Au        Au (2)
   97   132           4.3963188309         119.6299172561      Bg        Bg (4)
   98    63           4.4342014671         120.6607561948      Au        Au (2)
   99   102           4.5298665945         123.2639366529      Bu        Bu (3)
  100    33           4.7465745862         129.1608609010      Ag        Ag (1)
  101   103           4.8317224469         131.4778519847      Bu        Bu (3)
  102    34           4.8828201260         132.8682905217      Ag        Ag (1)
  103    35           5.0988037535         138.7455038172      Ag        Ag (1)
  104   104           5.1367741412         139.7787305966      Bu        Bu (3)
  105    36           5.2241276626         142.1557407588      Ag        Ag (1)
  106   133           5.2791789411         143.6537622037      Bg        Bg (4)
  107    64           5.3103989109         144.5033007715      Au        Au (2)
  108    37           5.4853276056         149.2633525506      Ag        Ag (1)
  109   105           5.6817758691         154.6089815683      Bu        Bu (3)
  110   106           5.8051680830         157.9666544074      Bu        Bu (3)
  111    38           6.1918495687         168.4887925681      Ag        Ag (1)
  112   107           6.2323013028         169.5895402139      Bu        Bu (3)
  113    65           6.5293422757         177.6724360143      Au        Au (2)
  114    39           6.6154913952         180.0166727345      Ag        Ag (1)
  115   108           6.6389151018         180.6540641945      Bu        Bu (3)
  116   134           6.6672397646         181.4248174530      Bg        Bg (4)
  117   135           6.6827151477         181.8459240382      Bg        Bg (4)
  118   109           6.6957559793         182.2007831061      Bu        Bu (3)
  119    66           6.7403127189         183.4132336294      Au        Au (2)
  120    40           6.9047639343         187.8881787028      Ag        Ag (1)
  121   136           7.0070441515         190.6713649083      Bg        Bg (4)
  122    67           7.0322144236         191.3562828323      Au        Au (2)
  123   110           7.0582287090         192.0641675257      Bu        Bu (3)
  124   137           7.1006085244         193.2173809316      Bg        Bg (4)
  125    41           7.1908078061         195.6718281667      Ag        Ag (1)
  126    68           7.1947660759         195.7795381634      Au        Au (2)
  127   138           7.2395810918         196.9990167436      Bg        Bg (4)
  128   111           7.2428666421         197.0884211145      Bu        Bu (3)
  129    69           7.2714080534         197.8650723994      Au        Au (2)
  130   112           7.3734085186         200.6406461653      Bu        Bu (3)
  131    42           7.3885181981         201.0518014451      Ag        Ag (1)
  132    43           7.7251833803         210.2129267976      Ag        Ag (1)
  133    44           7.7931337763         212.0619510734      Ag        Ag (1)
  134   113           7.9679833902         216.8198509554      Bu        Bu (3)
  135    45           8.1025197096         220.4807703230      Ag        Ag (1)
  136   114           8.2386050557         224.1838408515      Bu        Bu (3)
  137    46          13.9002248658         378.2443481700      Ag        Ag (1)
  138   115          15.4149449044         419.4619758843      Bu        Bu (3)


 
  ORBITAL EIGENVALUES ( BETA)  (1H = 27.2113834 eV)

       MO #        E(hartree)               E(eV)           FULLSYM    COMPSYM
       ----   --------------------   --------------------   -------   ---------
    1     1         -20.6470200703        -561.8339792003      Ag        Ag (1)
    2    70         -20.6469370328        -561.8317196358      Bu        Bu (3)
    3     2          -1.3657638333         -37.1643233010      Ag        Ag (1)
    4    71          -1.1973300353         -32.5810066481      Bu        Bu (3)
    5    72          -0.7099904642         -19.3198227317      Bu        Bu (3)
    6     3          -0.6493727192         -17.6703300316      Ag        Ag (1)
    7     4          -0.4526763786         -12.3179504934      Ag        Ag (1)
    8    47          -0.3747088419         -10.1963459596      Au        Au (2)
  +++++++++++++++++++++++++++++++++++++++++++++++++++++++++++++++++++++++++++++
    9   116          -0.0410536542          -1.1171267240      Bg        Bg (4)
   10    73          -0.0051672516          -0.1406080635      Bu        Bu (3)
   11     5           0.0362680850           0.9869047661      Ag        Ag (1)
   12    74           0.0559215117           1.5217016964      Bu        Bu (3)
   13    75           0.1198991337           3.2626212966      Bu        Bu (3)
   14    48           0.1394929708           3.7957967099      Au        Au (2)
   15     6           0.1618436728           4.4039902305      Ag        Ag (1)
   16     7           0.1631948156           4.4407566967      Ag        Ag (1)
   17     8           0.2022521048           5.5035595667      Ag        Ag (1)
   18   117           0.2105325432           5.7288817498      Bg        Bg (4)
   19    76           0.2114690403           5.7543651338      Bu        Bu (3)
   20   118           0.2694143473           7.3311370977      Bg        Bg (4)
   21     9           0.2734109652           7.4398906002      Ag        Ag (1)
   22    77           0.2779588062           7.5636436450      Bu        Bu (3)
   23    78           0.3146519051           8.5621136271      Bu        Bu (3)
   24    49           0.3734157311          10.1611586252      Au        Au (2)
   25    79           0.3865839857          10.5194850500      Bu        Bu (3)
   26    10           0.4713375219          12.8257460199      Ag        Ag (1)
   27    11           0.4805157585          13.0754985337      Ag        Ag (1)
   28    80           0.4934484120          13.4274139261      Bu        Bu (3)
   29    81           0.5430206016          14.7763417836      Bu        Bu (3)
   30    12           0.6462805874          17.5861888464      Ag        Ag (1)
   31    50           0.6630099231          18.0414172147      Au        Au (2)
   32    51           0.7034565272          19.1420252656      Au        Au (2)
   33   119           0.7187671622          19.5586488265      Bg        Bg (4)
   34    82           0.7601775275          20.6854821533      Bu        Bu (3)
   35    13           0.7703431698          20.9621033442      Ag        Ag (1)
   36    14           0.8010514349          21.7977177177      Ag        Ag (1)
   37    83           0.8450229132          22.9942424720      Bu        Bu (3)
   38   120           0.8644310103          23.5223636454      Bg        Bg (4)
   39    84           0.9065926980          24.6696414918      Bu        Bu (3)
   40    15           0.9353820713          25.4530401673      Ag        Ag (1)
   41    52           0.9417526235          25.6263917064      Au        Au (2)
   42    85           0.9432253430          25.6664664423      Bu        Bu (3)
   43    53           0.9912143221          26.9723129492      Au        Au (2)
   44    16           0.9948538662          27.0713499803      Ag        Ag (1)
   45   121           0.9953368881          27.0844936729      Bg        Bg (4)
   46    17           1.0506556259          28.5897930580      Ag        Ag (1)
   47    86           1.0721577531          29.1748956840      Bu        Bu (3)
   48   122           1.1062372090          30.1022448261      Bg        Bg (4)
   49    18           1.1152684197          30.3479965633      Ag        Ag (1)
   50    87           1.1610246390          31.5930865897      Bu        Bu (3)
   51   123           1.2032775929          32.7428479171      Bg        Bg (4)
   52    88           1.2256300361          33.3510888198      Bu        Bu (3)
   53    54           1.3385100483          36.4227101097      Au        Au (2)
   54    19           1.3590418339          36.9814083987      Ag        Ag (1)
   55    20           1.4237081905          38.7410694222      Ag        Ag (1)
   56    89           1.4559706741          39.6189762332      Bu        Bu (3)
   57    21           1.4587696091          39.6951391255      Ag        Ag (1)
   58    55           1.4873661030          40.4732892848      Au        Au (2)
   59   124           1.5607293096          42.4696036283      Bg        Bg (4)
   60    22           1.7062015585          46.4281047667      Ag        Ag (1)
   61    90           1.8201269612          49.5281725787      Bu        Bu (3)
   62    91           2.0037229949          54.5240746427      Bu        Bu (3)
   63    23           2.1269438573          57.8770847717      Ag        Ag (1)
   64    56           2.1827820974          59.3965205315      Au        Au (2)
   65    92           2.1884169740          59.5498533193      Bu        Bu (3)
   66   125           2.2328091351          60.7578254330      Bg        Bg (4)
   67    57           2.2495367021          61.2130056726      Au        Au (2)
   68    93           2.2624700771          61.5649406982      Bu        Bu (3)
   69   126           2.3104578930          62.8707555557      Bg        Bg (4)
   70    58           2.3271194179          63.3241386988      Au        Au (2)
   71    24           2.3360565054          63.5673292113      Ag        Ag (1)
   72    25           2.4115835128          65.6225235678      Ag        Ag (1)
   73    94           2.4221656860          65.9104791389      Bu        Bu (3)
   74    26           2.4536913639          66.7683364490      Ag        Ag (1)
   75    95           2.4641942497          67.0541345014      Bu        Bu (3)
   76    96           2.4766939430          67.3942684468      Bu        Bu (3)
   77    59           2.5245321699          68.6960127803      Au        Au (2)
   78   127           2.5356304713          68.9980129142      Bg        Bg (4)
   79    27           2.5383763065          69.0727308900      Ag        Ag (1)
   80    97           2.6093806673          71.0048577750      Bu        Bu (3)
   81    28           2.6582994467          72.3360054368      Ag        Ag (1)
   82   128           2.7493894134          74.8146894448      Bg        Bg (4)
   83    60           2.7809460302          75.6733886428      Au        Au (2)
   84    29           2.8250263912          76.8728762470      Ag        Ag (1)
   85   129           2.8484336385          77.5098198261      Bg        Bg (4)
   86    30           2.9150454049          79.3224181404      Ag        Ag (1)
   87    98           3.1978032483          87.0166502261      Bu        Bu (3)
   88    99           3.2919504922          89.5785269773      Bu        Bu (3)
   89    31           3.8556903649         104.9186687907      Ag        Ag (1)
   90   100           3.9145433155         106.5201389939      Bu        Bu (3)
   91    32           3.9807740952         108.3223701345      Ag        Ag (1)
   92   130           4.0906079324         111.3111007878      Bg        Bg (4)
   93   101           4.1035477956         111.6632123659      Bu        Bu (3)
   94    61           4.1197126127         112.1030794022      Au        Au (2)
   95   131           4.2836944231         116.5652513150      Bg        Bg (4)
   96    62           4.3784836605         119.1445975969      Au        Au (2)
   97   132           4.3925282492         119.5267702845      Bg        Bg (4)
   98    63           4.4611212712         121.3932813045      Au        Au (2)
   99   102           4.5293050980         123.2486575572      Bu        Bu (3)
  100    33           4.7647079315         129.6542943123      Ag        Ag (1)
  101   103           4.8584901210         132.2062374289      Bu        Bu (3)
  102    34           4.8852662481         132.9348528874      Ag        Ag (1)
  103    35           5.1293558717         139.5768692186      Ag        Ag (1)
  104   104           5.1617706750         140.4589208615      Bu        Bu (3)
  105    36           5.2452085859         142.7293818451      Ag        Ag (1)
  106   133           5.3075786790         144.4265583590      Bg        Bg (4)
  107    64           5.3433116951         145.3989031613      Au        Au (2)
  108    37           5.5369491340         150.6680457511      Ag        Ag (1)
  109   105           5.6868730092         154.7476818007      Bu        Bu (3)
  110   106           5.8437289014         159.0159476212      Bu        Bu (3)
  111    38           6.2336350160         169.6258323958      Ag        Ag (1)
  112   107           6.2683153823         170.5695331404      Bu        Bu (3)
  113    65           6.5761259953         178.9454857440      Au        Au (2)
  114    39           6.6610627213         181.2567315613      Ag        Ag (1)
  115   108           6.6828582589         181.8498182920      Bu        Bu (3)
  116   134           6.7123384341         182.6520146395      Bg        Bg (4)
  117   135           6.7414669709         183.4446424234      Bg        Bg (4)
  118   109           6.7561185478         183.8433321011      Bu        Bu (3)
  119    66           6.8016692146         185.0828287578      Au        Au (2)
  120    40           6.9785285421         189.8954157262      Ag        Ag (1)
  121   110           7.1045570540         193.3248258830      Bu        Bu (3)
  122   136           7.1132663028         193.5618165927      Bg        Bg (4)
  123    67           7.1193706105         193.7279232489      Au        Au (2)
  124   137           7.1634224821         194.9266356160      Bg        Bg (4)
  125    68           7.2334881186         196.8332185152      Au        Au (2)
  126    41           7.2582021458         197.5057213844      Ag        Ag (1)
  127   138           7.3027332637         198.7174747069      Bg        Bg (4)
  128   111           7.3350458882         199.5967459211      Bu        Bu (3)
  129    69           7.3678670606         200.4898554257      Au        Au (2)
  130    42           7.4212803856         201.9433058921      Ag        Ag (1)
  131   112           7.4220841889         201.9651784915      Bu        Bu (3)
  132    43           7.7609397751         211.1859077656      Ag        Ag (1)
  133    44           7.8605741342         213.8970965109      Ag        Ag (1)
  134   113           8.0035097632         217.7865727128      Bu        Bu (3)
  135    45           8.1531613466         221.8587993252      Ag        Ag (1)
  136   114           8.2858798831         225.4702543049      Bu        Bu (3)
  137    46          13.9382889460         379.2801244502      Ag        Ag (1)
  138   115          15.4539023263         420.5220612281      Bu        Bu (3)


  VSCF finished.

 @CHECKOUT-I, Total execution time (CPU/WALL):        8.72/       8.73 seconds.
--executable xvscf finished with status     0 in        8.77 seconds (walltime).
 --invoking executable--
/apps/eb/cfour/2.1-iompi-2018a-serial/bin/xvtran
 @GETMEM-I,  Allocated   38146 MB of main memory.
  Full UHF integral transformation
  Frozen-core orbitals requested within analytic derivative calculation
  Transformation of IIII integrals :
  2 passes through the AO integral file were required.
     1246094 AO integrals were read.
     1246094 MO integrals (Spin case AAAA) were written to HF2AA.
     1246094 MO integrals (Spin case BBBB) were written to HF2BB.
     2489474 MO integrals (Spin case AABB) were written to HF2AB.
  Transformation of IIJJ integrals :
  2 passes through the AO integral file were required.
     2438161 AO integrals were read.
     2438161 MO integrals (Spin case AAAA) were written to HF2AA.
     2438161 MO integrals (Spin case BBBB) were written to HF2BB.
     4876322 MO integrals (Spin case AABB) were written to HF2AB.
  Transformation of IJIJ integrals :
  2 passes through the AO integral file were required.
     4620815 AO integrals were read.
     4620815 MO integrals (Spin case AAAA) were written to HF2AA.
     4620815 MO integrals (Spin case BBBB) were written to HF2BB.
     9234753 MO integrals (Spin case AABB) were written to HF2AB.
  Transformation of IJKL integrals :
  2 passes through the AO integral file were required.
     3358092 AO integrals were read.
     3358092 MO integrals (Spin case AAAA) were written to HF2AA.
     3358092 MO integrals (Spin case BBBB) were written to HF2BB.
     6716184 MO integrals (Spin case AABB) were written to HF2AB.
  Summary of active molecular orbitals: 
------------------------------------------------------------------------
                         * Spin case alpha *
 
  Index      Eigenvalue    Symmetry    Index      Eigenvalue    Symmetry
------------------------------------------------------------------------
     1       -20.7018173        1        70         6.5293423        2
     2        -1.5287764        1        71         6.7403127        2
     3        -0.8280798        1        72         7.0322144        2
     4        -0.6298346        1        73         7.1947661        2
     5        -0.7005995        2        74         7.2714081        2
     6       -20.7018705        3        75         0.0511392        3
     7        -1.4089236        3        76         0.1123444        3
     8        -0.7541555        3        77         0.1964463        3
     9        -0.6262025        3        78         0.2765137        3
    10        -0.6532125        4        79         0.3103509        3
    11         0.0368117        1        80         0.3867373        3
    12         0.1598853        1        81         0.4881634        3
    13         0.1622684        1        82         0.5466469        3
    14         0.1980152        1        83         0.7389893        3
    15         0.2766435        1        84         0.8256577        3
    16         0.4496157        1        85         0.9030878        3
    17         0.4695476        1        86         0.9224319        3
    18         0.6437932        1        87         1.0681107        3
    19         0.7510401        1        88         1.1578536        3
    20         0.7963004        1        89         1.2248072        3
    21         0.9066324        1        90         1.4303560        3
    22         0.9786360        1        91         1.8094760        3
    23         1.0216589        1        92         1.9744880        3
    24         1.1035762        1        93         2.1418978        3
    25         1.3452178        1        94         2.2173145        3
    26         1.3948221        1        95         2.3983575        3
    27         1.4507512        1        96         2.4405835        3
    28         1.6836227        1        97         2.4586676        3
    29         2.0953418        1        98         2.5851112        3
    30         2.2914472        1        99         3.1675852        3
    31         2.3938311        1       100         3.2602008        3
    32         2.4271566        1       101         3.9145810        3
    33         2.5176952        1       102         4.0427124        3
    34         2.6451306        1       103         4.5298666        3
    35         2.7933062        1       104         4.8317224        3
    36         2.8905364        1       105         5.1367741        3
    37         3.8341578        1       106         5.6817759        3
    38         3.9655686        1       107         5.8051681        3
    39         4.7465746        1       108         6.2323013        3
    40         4.8828201        1       109         6.6389151        3
    41         5.0988038        1       110         6.6957560        3
    42         5.2241277        1       111         7.0582287        3
    43         5.4853276        1       112         7.2428666        3
    44         6.1918496        1       113         7.3734085        3
    45         6.6154914        1       114         7.9679834        3
    46         6.9047639        1       115         8.2386051        3
    47         7.1908078        1       116        15.4149449        3
    48         7.3885182        1       117         0.1946319        4
    49         7.7251834        1       118         0.2723299        4
    50         7.7931338        1       119         0.7206418        4
    51         8.1025197        1       120         0.8263658        4
    52        13.9002249        1       121         0.9741120        4
    53         0.1259569        2       122         1.0752290        4
    54         0.3479143        2       123         1.2020747        4
    55         0.6583229        2       124         1.5533868        4
    56         0.6996719        2       125         2.1518881        4
    57         0.8992925        2       126         2.2741853        4
    58         0.9669184        2       127         2.5227444        4
    59         1.3237249        2       128         2.7275312        4
    60         1.4807692        2       129         2.8231419        4
    61         2.1270386        2       130         4.0297672        4
    62         2.2309793        2       131         4.2605807        4
    63         2.2956260        2       132         4.3963188        4
    64         2.5148165        2       133         5.2791789        4
    65         2.7447459        2       134         6.6672398        4
    66         4.0502585        2       135         6.6827151        4
    67         4.3846559        2       136         7.0070442        4
    68         4.4342015        2       137         7.1006085        4
    69         5.3103989        2       138         7.2395811        4
------------------------------------------------------------------------
------------------------------------------------------------------------
                         * Spin case beta *
 
  Index      Eigenvalue    Symmetry    Index      Eigenvalue    Symmetry
------------------------------------------------------------------------
     1       -20.6470201        1        70         7.1193706        2
     2        -1.3657638        1        71         7.2334881        2
     3        -0.6493727        1        72         7.3678671        2
     4        -0.4526764        1        73        -0.0051673        3
     5        -0.3747088        2        74         0.0559215        3
     6       -20.6469370        3        75         0.1198991        3
     7        -1.1973300        3        76         0.2114690        3
     8        -0.7099905        3        77         0.2779588        3
     9         0.0362681        1        78         0.3146519        3
    10         0.1618437        1        79         0.3865840        3
    11         0.1631948        1        80         0.4934484        3
    12         0.2022521        1        81         0.5430206        3
    13         0.2734110        1        82         0.7601775        3
    14         0.4713375        1        83         0.8450229        3
    15         0.4805158        1        84         0.9065927        3
    16         0.6462806        1        85         0.9432253        3
    17         0.7703432        1        86         1.0721578        3
    18         0.8010514        1        87         1.1610246        3
    19         0.9353821        1        88         1.2256300        3
    20         0.9948539        1        89         1.4559707        3
    21         1.0506556        1        90         1.8201270        3
    22         1.1152684        1        91         2.0037230        3
    23         1.3590418        1        92         2.1884170        3
    24         1.4237082        1        93         2.2624701        3
    25         1.4587696        1        94         2.4221657        3
    26         1.7062016        1        95         2.4641942        3
    27         2.1269439        1        96         2.4766939        3
    28         2.3360565        1        97         2.6093807        3
    29         2.4115835        1        98         3.1978032        3
    30         2.4536914        1        99         3.2919505        3
    31         2.5383763        1       100         3.9145433        3
    32         2.6582994        1       101         4.1035478        3
    33         2.8250264        1       102         4.5293051        3
    34         2.9150454        1       103         4.8584901        3
    35         3.8556904        1       104         5.1617707        3
    36         3.9807741        1       105         5.6868730        3
    37         4.7647079        1       106         5.8437289        3
    38         4.8852662        1       107         6.2683154        3
    39         5.1293559        1       108         6.6828583        3
    40         5.2452086        1       109         6.7561185        3
    41         5.5369491        1       110         7.1045571        3
    42         6.2336350        1       111         7.3350459        3
    43         6.6610627        1       112         7.4220842        3
    44         6.9785285        1       113         8.0035098        3
    45         7.2582021        1       114         8.2858799        3
    46         7.4212804        1       115        15.4539023        3
    47         7.7609398        1       116        -0.0410537        4
    48         7.8605741        1       117         0.2105325        4
    49         8.1531613        1       118         0.2694143        4
    50        13.9382889        1       119         0.7187672        4
    51         0.1394930        2       120         0.8644310        4
    52         0.3734157        2       121         0.9953369        4
    53         0.6630099        2       122         1.1062372        4
    54         0.7034565        2       123         1.2032776        4
    55         0.9417526        2       124         1.5607293        4
    56         0.9912143        2       125         2.2328091        4
    57         1.3385100        2       126         2.3104579        4
    58         1.4873661        2       127         2.5356305        4
    59         2.1827821        2       128         2.7493894        4
    60         2.2495367        2       129         2.8484336        4
    61         2.3271194        2       130         4.0906079        4
    62         2.5245322        2       131         4.2836944        4
    63         2.7809460        2       132         4.3925282        4
    64         4.1197126        2       133         5.3075787        4
    65         4.3784837        2       134         6.7123384        4
    66         4.4611213        2       135         6.7414670        4
    67         5.3433117        2       136         7.1132663        4
    68         6.5761260        2       137         7.1634225        4
    69         6.8016692        2       138         7.3027333        4
------------------------------------------------------------------------
  -20.7018172837127       -1.52877644600639      -0.828079803464331     
 -0.629834627998883      -0.700599476152634       -20.7018704837133     
  -1.40892364784127      -0.754155453546029      -0.626202456108769     
 -0.653212528535814       3.681170410307323E-002  0.159885348743391     
  0.162268355418971       0.198015238850558       0.276643496476294     
  0.449615654429563       0.469547586606540       0.643793178889274     
  0.751040128490604       0.796300427406184       0.906632419230710     
  0.978635997804904        1.02165887638713        1.10357616244959     
   1.34521784069941        1.39482205816238        1.45075118332677     
   1.68362270316166        2.09534178057992        2.29144718665987     
   2.39383111110035        2.42715655905849        2.51769523171690     
   2.64513059109358        2.79330619584996        2.89053638471320     
   3.83415776223722        3.96556861945268        4.74657458616942     
   4.88282012599600        5.09880375347590        5.22412766264422     
   5.48532760560099        6.19184956866528        6.61549139520984     
   6.90476393430189        7.19080780606962        7.38851819805381     
   7.72518338033402        7.79313377626363        8.10251970956364     
   13.9002248658184       0.125956894299911       0.347914307341432     
  0.658322895144642       0.699671876159919       0.899292490077237     
  0.966918408620357        1.32372489319153        1.48076921642156     
   2.12703864888111        2.23097926094873        2.29562598609409     
   2.51481654125686        2.74474586886361        4.05025846542809     
   4.38465594099555        4.43420146712701        5.31039891090053     
   6.52934227571305        6.74031271888374        7.03221442362776     
   7.19476607585616        7.27140805341714       5.113918029262995E-002
  0.112344358634030       0.196446286513002       0.276513716428822     
  0.310350874603725       0.386737338231164       0.488163423438220     
  0.546646928448617       0.738989283259986       0.825657724403129     
  0.903087758255525       0.922431884682725        1.06811072197163     
   1.15785355592487        1.22480716266648        1.43035602723022     
   1.80947599709769        1.97448797409690        2.14189775160212     
   2.21731453300252        2.39835745373439        2.44058347803726     
   2.45866762770795        2.58511121628917        3.16758520310731     
   3.26020082328760        3.91458095060958        4.04271237353063     
   4.52986659446565        4.83172244689000        5.13677414124310     
   5.68177586914823        5.80516808297967        6.23230130276828     
   6.63891510177703        6.69575597931767        7.05822870900945     
   7.24286664214490        7.37340851863158        7.96798339019412     
   8.23860505568714        15.4149449044304       0.194631928992790     
  0.272329939973050       0.720641815999334       0.826365788315267     
  0.974111997226056        1.07522895664089        1.20207465358205     
   1.55338678889385        2.15188810870242        2.27418525101992     
   2.52274442896822        2.72753123648341        2.82314187931071     
   4.02976718990465        4.26058073265337        4.39631883089406     
   5.27917894110977        6.66723976455230        6.68271514774288     
   7.00704415154014        7.10060852443275        7.23958109177303     
  -20.6470200702971       -1.36576383327087      -0.649372719198632     
 -0.452676378571246      -0.374708841873413       -20.6469370328214     
  -1.19733003534565      -0.709990464200184       3.626808499927529E-002
  0.161843672766546       0.163194815617860       0.202252104782411     
  0.273410965214790       0.471337521926125       0.480515758479144     
  0.646280587351176       0.770343169845821       0.801051434882851     
  0.935382071287990       0.994853866206005        1.05065562590878     
   1.11526841973281        1.35904183389401        1.42370819052955     
   1.45876960909943        1.70620155852529        2.12694385731468     
   2.33605650535488        2.41158351279566        2.45369136392344     
   2.53837630651479        2.65829944672290        2.82502639123383     
   2.91504540487215        3.85569036488830        3.98077409524658     
[...]
 ======================================================================
 Norm of residual vector:     0.14153495
 CPU time [min]:  2515.004                   Wall time [min]:   379.752
 
 Iteration  4  CI energy:  -151.26137543  Energy decrease:   0.0000E+00
 ======================================================================
 Norm of residual vector:     0.06757532
 CPU time [min]:  2587.320                   Wall time [min]:   390.753
 
 Iteration  5  CI energy:  -151.26137543  Energy decrease:   0.0000E+00
 ======================================================================
 Norm of residual vector:     0.03298744
 CPU time [min]:  2658.738                   Wall time [min]:   401.724
 
 Iteration  6  CI energy:  -151.26137543  Energy decrease:   0.0000E+00
 ======================================================================
 Norm of residual vector:     0.02056019
 CPU time [min]:  2730.442                   Wall time [min]:   412.842
 
 Iteration  7  CI energy:  -151.26137543  Energy decrease:   0.0000E+00
 ======================================================================
 Norm of residual vector:     0.01194606
 CPU time [min]:  2802.996                   Wall time [min]:   424.045
 
 Iteration  8  CI energy:  -151.26137543  Energy decrease:   0.0000E+00
 ======================================================================
 Norm of residual vector:     0.00796808
 CPU time [min]:  2875.413                   Wall time [min]:   435.336
 
 Iteration  9  CI energy:  -151.26137543  Energy decrease:   0.0000E+00
 ======================================================================
 Norm of residual vector:     0.00381614
 CPU time [min]:  2949.654                   Wall time [min]:   446.873
 
 Iteration 10  CI energy:  -151.26137543  Energy decrease:   0.0000E+00
 ======================================================================
 Norm of residual vector:     0.00210869
 CPU time [min]:  3023.671                   Wall time [min]:   458.401
 
 Iteration 11  CI energy:  -151.26137543  Energy decrease:   0.0000E+00
 ======================================================================
 Norm of residual vector:     0.00093173
 CPU time [min]:  3097.015                   Wall time [min]:   469.976
 
 Iteration 12  CI energy:  -151.26137543  Energy decrease:   0.0000E+00
 ======================================================================
 Norm of residual vector:     0.00040104
 CPU time [min]:  3171.120                   Wall time [min]:   481.623
 
 Iteration 13  CI energy:  -151.26137543  Energy decrease:   0.0000E+00
 ======================================================================
 Norm of residual vector:     0.00018376
 CPU time [min]:  3243.312                   Wall time [min]:   493.166
 
 Iteration 14  CI energy:  -151.26137543  Energy decrease:   0.0000E+00
 ======================================================================
 Norm of residual vector:     0.00007958
 CPU time [min]:  3316.111                   Wall time [min]:   504.823
 
 Iteration 15  CI energy:  -151.26137543  Energy decrease:   0.0000E+00
 ======================================================================
 Norm of residual vector:     0.00003472
 CPU time [min]:  3389.959                   Wall time [min]:   516.594
 
 Iteration 16  CI energy:  -151.26137543  Energy decrease:   0.0000E+00
 ======================================================================
 Norm of residual vector:     0.00001621
 CPU time [min]:  3468.295                   Wall time [min]:   528.997
 
 Iteration 17  CI energy:  -151.26137543  Energy decrease:   0.0000E+00
 ======================================================================
 Norm of residual vector:     0.00000756
 CPU time [min]:  3545.103                   Wall time [min]:   541.338
 
 Iteration 18  CI energy:  -151.26137543  Energy decrease:   0.0000E+00
 ======================================================================
 Norm of residual vector:     0.00000352
 CPU time [min]:  3618.602                   Wall time [min]:   553.333
 
 Iteration 19  CI energy:  -151.26137543  Energy decrease:   0.0000E+00
 ======================================================================
 Norm of residual vector:     0.00000161
 CPU time [min]:  3691.074                   Wall time [min]:   565.234
 
 Iteration 20  CI energy:  -151.26137543  Energy decrease:   0.0000E+00
 ======================================================================
 Norm of residual vector:     0.00000072
 CPU time [min]:  3764.282                   Wall time [min]:   577.294
 
 Iteration 21  CI energy:  -151.26137543  Energy decrease:   0.0000E+00
 ======================================================================
 Norm of residual vector:     0.00000033
 CPU time [min]:  3838.981                   Wall time [min]:   589.677
 
 Iteration 22  CI energy:  -151.26137543  Energy decrease:   0.0000E+00
 ======================================================================
 Norm of residual vector:     0.00000015
 CPU time [min]:  3912.254                   Wall time [min]:   601.757
 
 Iteration 23  CI energy:  -151.26137543  Energy decrease:   0.0000E+00
 ======================================================================
 Norm of residual vector:     0.00000007
 CPU time [min]:  3986.082                   Wall time [min]:   614.069
 
 Iteration 24  CI energy:  -151.26137543  Energy decrease:   0.0000E+00
 ======================================================================
 Norm of residual vector:     0.00000003
 CPU time [min]:  4060.430                   Wall time [min]:   626.804
 
 Iteration 25  CI energy:  -151.26137543  Energy decrease:   0.0000E+00
 ======================================================================
 Norm of residual vector:     0.00000002
 CPU time [min]:  4135.290                   Wall time [min]:   639.466
 
 Iteration 26  CI energy:  -151.26137543  Energy decrease:   0.0000E+00
 ======================================================================
 Norm of residual vector:     0.00000001
 CPU time [min]:  4210.696                   Wall time [min]:   652.436
 
 Iteration 27  CI energy:  -151.26137543  Energy decrease:   0.0000E+00
 ======================================================================
 Norm of residual vector:     2.8263E-09
 CPU time [min]:  4288.662                   Wall time [min]:   665.641
 
 Iteration 28  CI energy:  -151.26137543  Energy decrease:   0.0000E+00
 ======================================================================
 Norm of residual vector:     1.2092E-09
 CPU time [min]:  4366.008                   Wall time [min]:   679.075
 
 Iteration 29  CI energy:  -151.26137543  Energy decrease:   0.0000E+00
 ======================================================================
 Norm of residual vector:     5.4657E-10
 CPU time [min]:  4450.921                   Wall time [min]:   693.713
 
 Iteration 30  CI energy:  -151.26137543  Energy decrease:   0.0000E+00
 ======================================================================
 Norm of residual vector:     2.6588E-10
 CPU time [min]:  4533.242                   Wall time [min]:   708.533
 
 Iteration 31  CI energy:  -151.26137543  Energy decrease:   0.0000E+00
 ======================================================================
 Norm of residual vector:     1.3115E-10
 CPU time [min]:  4618.137                   Wall time [min]:   723.607
 
 Iteration 32  CI energy:  -151.26137543  Energy decrease:   0.0000E+00
 ======================================================================
 Norm of residual vector:     6.4477E-11
 CPU time [min]:  4704.137                   Wall time [min]:   738.820
 
 Iteration 33  CI energy:  -151.26137543  Energy decrease:   0.0000E+00
 ======================================================================
 Norm of residual vector:     3.0924E-11
 CPU time [min]:  4783.108                   Wall time [min]:   752.832
 
 Iteration 34  CI energy:  -151.26137543  Energy decrease:   0.0000E+00
 ======================================================================
 Norm of residual vector:     1.4363E-11
 CPU time [min]:  4861.275                   Wall time [min]:   766.582
 
 Iteration 35  CI energy:  -151.26137543  Energy decrease:   0.0000E+00
 ======================================================================
 Norm of residual vector:     6.3913E-12
 CPU time [min]:  4939.621                   Wall time [min]:   780.530
 
 Iteration 36  CI energy:  -151.26137543  Energy decrease:   0.0000E+00
 ======================================================================
 Norm of residual vector:     2.6271E-12
 CPU time [min]:  5018.773                   Wall time [min]:   794.602
 
 Iteration 37  CI energy:  -151.26137543  Energy decrease:   0.0000E+00
 ======================================================================
 Norm of residual vector:     1.1165E-12
 CPU time [min]:  5098.593                   Wall time [min]:   808.851
 
 Iteration 38  CI energy:  -151.26137543  Energy decrease:   0.0000E+00
 ======================================================================
 Norm of residual vector:     4.8352E-13
 CPU time [min]:  5166.886                   Wall time [min]:   819.358
 
 Iteration 39  CI energy:  -151.26137543  Energy decrease:   0.0000E+00
 ======================================================================
 
 Iteration has converged in 39 steps.
 
 Final results:
 Total CCSDT energy [au]:           -151.261375425813
 
 
 
 Calculating reduced density-matrix for root 1...
 
 Total energy from RDM [au]:        -151.261375425813
 
 ************************ 2021-02-03 14:10:14 *************************
                      Normal termination of mrcc.
 **********************************************************************
--executable dmrcc finished with status     0 in    51672.59 seconds (walltime).
 --invoking executable--
/apps/eb/cfour/2.1-iompi-2018a-serial/bin/xdens
 @GETMEM-I,  Allocated   38146 MB of main memory.
  CCSDT density and intermediates are calculated.
  The perturbed orbitals are chosen canonical.
   Frozen core orbitals in analytic derivative calculation
  dropped orbitals                     1                     0
                     1                     0                     0
                     0                     0                     0
 ITERM.tmp does not exsit!
 skip reading
  @S2EXPECT-I, S**2 calculated as expectation value.
  @S2EXPECT-I, Contributions to <S**2> : 
  From one particle density : 
    D(ai)   :   -0.1226849288
    D(ij)   :    0.3193362887
    D(ab)   :   -0.1352889912
  From two particle density : 
    G(abcd) :   -0.0527360484
    G(abci) :    0.0230225976
    G(abij) :   -0.0823475919
    G(aibj) :   -0.0356401256
    G(ijka) :    0.0217146821
    G(ijkl) :   -0.0537152249
              Reference state <S**2>        :    2.1191874705.
              Total one particle correction :    0.0613623687.
              Total two particle correction :   -0.1797017110.
              Expectation value of <S**2>   :    2.0008481281.
  The iterative expansion of D(ai) converged after  20 iterations.
  ----------------------------------------------------------------------
                 Natural orbital occupation numbers
  ----------------------------------------------------------------------
                            Alpha spin
  ----------------------------------------------------------------------
  1.00000  1.00000  0.99214  0.99107  0.98427  0.98345  0.98219  0.97989
  0.97804  0.97639  0.01958  0.01686  0.01352  0.00708  0.00692  0.00690
  0.00562  0.00493  0.00417  0.00414  0.00380  0.00377  0.00374  0.00369
  0.00356  0.00355  0.00344  0.00231  0.00088  0.00085  0.00079  0.00078
  0.00061  0.00061  0.00054  0.00051  0.00050  0.00050  0.00042  0.00039
  0.00037  0.00035  0.00035  0.00035  0.00035  0.00033  0.00032  0.00032
  0.00030  0.00030  0.00029  0.00029  0.00029  0.00028  0.00027  0.00027
  0.00024  0.00023  0.00018  0.00012  0.00011  0.00010  0.00009  0.00009
  0.00008  0.00007  0.00007  0.00006  0.00006  0.00006  0.00005  0.00005
  0.00005  0.00004  0.00004  0.00004  0.00004  0.00004  0.00003  0.00003
  0.00003  0.00003  0.00003  0.00003  0.00003  0.00003  0.00002  0.00002
  0.00002  0.00002  0.00002  0.00002  0.00002  0.00002  0.00002  0.00002
  0.00002  0.00002  0.00002  0.00001  0.00001  0.00001  0.00001  0.00001
  0.00001  0.00001  0.00001  0.00001  0.00001  0.00000  0.00000  0.00000
  0.00000  0.00000  0.00000  0.00000  0.00000  0.00000  0.00000  0.00000
  0.00000  0.00000  0.00000  0.00000  0.00000  0.00000  0.00000  0.00000
  0.00000  0.00000  0.00000  0.00000  0.00000  0.00000  0.00000  0.00000
  0.00000  0.00000
  Trace of density matrix :  10.0000000000.
  ----------------------------------------------------------------------
                            Beta spin
  ----------------------------------------------------------------------
  1.00001  1.00001  0.98739  0.98374  0.98041  0.97647  0.85813  0.85400
  0.13507  0.13382  0.01708  0.01025  0.00720  0.00620  0.00502  0.00473
  0.00345  0.00342  0.00303  0.00274  0.00268  0.00265  0.00256  0.00222
  0.00221  0.00185  0.00150  0.00135  0.00076  0.00068  0.00064  0.00054
  0.00049  0.00042  0.00041  0.00037  0.00033  0.00028  0.00028  0.00026
  0.00026  0.00026  0.00024  0.00024  0.00023  0.00021  0.00021  0.00021
  0.00021  0.00020  0.00020  0.00019  0.00019  0.00016  0.00016  0.00016
  0.00015  0.00015  0.00012  0.00011  0.00008  0.00008  0.00008  0.00007
  0.00007  0.00007  0.00006  0.00005  0.00005  0.00005  0.00005  0.00005
  0.00004  0.00004  0.00004  0.00003  0.00003  0.00003  0.00003  0.00003
  0.00002  0.00002  0.00002  0.00002  0.00002  0.00002  0.00002  0.00002
  0.00002  0.00002  0.00002  0.00002  0.00002  0.00002  0.00002  0.00001
  0.00001  0.00001  0.00001  0.00001  0.00001  0.00001  0.00001  0.00001
  0.00001  0.00001  0.00001  0.00001  0.00000  0.00000  0.00000  0.00000
  0.00000  0.00000  0.00000  0.00000  0.00000  0.00000  0.00000  0.00000
  0.00000  0.00000  0.00000  0.00000  0.00000  0.00000  0.00000  0.00000
  0.00000  0.00000  0.00000  0.00000  0.00000  0.00000  0.00000  0.00000
  0.00000  0.00000
  Trace of density matrix :   8.0000000000.
  ----------------------------------------------------------------------
  Density calculation successfully completed.
 @CHECKOUT-I, Total execution time (CPU/WALL):      244.09/     245.29 seconds.
--executable xdens finished with status     0 in      245.44 seconds (walltime).
 --invoking executable--
/apps/eb/cfour/2.1-iompi-2018a-serial/bin/xanti
 @GETMEM-I,  Allocated   38146 MB of main memory.
 CCSDT MO gammas will be sorted to Mulliken order.
 @CHECKOUT-I, Total execution time (CPU/WALL):        7.13/       7.13 seconds.
--executable xanti finished with status     0 in        7.23 seconds (walltime).
 --invoking executable--
/apps/eb/cfour/2.1-iompi-2018a-serial/bin/xbcktrn
 @GETMEM-I,  Allocated   38146 MB of main memory.
 CCSDT MO gammas will be transformed to the AO basis.
 @CHECKOUT-I, Total execution time (CPU/WALL):        1.92/       1.92 seconds.
--executable xbcktrn finished with status     0 in        2.00 seconds (walltime).
 --invoking executable--
/apps/eb/cfour/2.1-iompi-2018a-serial/bin/xvdint
 @GETMEM-I,  Allocated   38146 MB of main memory.
 One- and two-electron integral derivatives are calculated
 for UHF-CC/MBPT gradients and dipole moments.
 Spherical gaussians are used.

                     Kinetic energy integral gradient
                     --------------------------------

                         O #1 x     0.9998650974
                         O #1 y    -0.7584990770
                         H #2 x    -0.7972006256
                         H #2 y     0.8980856131


 O #1 1     0.4999325487           -0.3792495385            0.0000000000
 O #1 2    -0.4999325487            0.3792495385            0.0000000000
 H #2 1    -0.3986003128            0.4490428066            0.0000000000
 H #2 2     0.3986003128           -0.4490428066            0.0000000000



                   Nuclear attraction integral gradient
                   ------------------------------------

                         O #1 x   -28.2673142963
                         O #1 y     6.4829648131
                         H #2 x     4.6120159490
                         H #2 y    -9.9198068098


 O #1 1   -14.1336571482            3.2414824065            0.0000000000
 O #1 2    14.1336571482           -3.2414824065            0.0000000000
 H #2 1     2.3060079745           -4.9599034049            0.0000000000
 H #2 2    -2.3060079745            4.9599034049            0.0000000000



                      Reorthonormalization gradient
                      -----------------------------

                         O #1 x     0.3241621546
                         O #1 y    -0.3123357147
                         H #2 x    -0.1706317824
                         H #2 y     0.4268258950


 O #1 1     0.1620810773           -0.1561678574            0.0000000000
 O #1 2    -0.1620810773            0.1561678574            0.0000000000
 H #2 1    -0.0853158912            0.2134129475            0.0000000000
 H #2 2     0.0853158912           -0.2134129475            0.0000000000



                Electronic contributions to dipole moment
                -----------------------------------------

                     All components zero by symmetry

  Conversion factor used: 1 a.u. =   2.54174691 Debye 


 Evaluation of 1e integral derivatives required    0.09 seconds.
 Evaluation of 2el integral derivatives

                      Two-electron integral gradient
                      ------------------------------

                         O #1 x    12.7894752005
                         O #1 y    -3.0418722366
                         H #2 x    -2.0167161179
                         H #2 y     4.3514069077


 O #1 1     6.3947376003           -1.5209361183            0.0000000000
 O #1 2    -6.3947376003            1.5209361183            0.0000000000
 H #2 1    -1.0083580589            2.1757034538            0.0000000000
 H #2 2     1.0083580589           -2.1757034538            0.0000000000


 Evaluation of 2e integral derivatives required   10.73 seconds.

                            Molecular gradient
                            ------------------

                         O #1 x     0.0957807321
                         O #1 y    -0.0351359573
                         H #2 x     0.0004035769
                         H #2 y     0.1181292799


 O #1 1     0.0478903660           -0.0175679786            0.0000000000
 O #1 2    -0.0478903660            0.0175679786            0.0000000000
 H #2 1     0.0002017884            0.0590646400            0.0000000000
 H #2 2    -0.0002017884           -0.0590646400            0.0000000000


  Molecular gradient norm 0.156E+00

                           Total dipole moment
                           -------------------

                     All components zero by symmetry

  Conversion factor used: 1 a.u. =   2.54174691 Debye 


 @CHECKOUT-I, Total execution time (CPU/WALL):       10.81/      11.38 seconds.
--executable xvdint finished with status     0 in       11.46 seconds (walltime).
 --invoking executable--
/apps/eb/cfour/2.1-iompi-2018a-serial/bin/xjoda
  igrd and ihes are                      0                    -1
  gradient from JOBARC 
   0.047890366035207  -0.017567978632201   0.000000000000000
  -0.047890366035207   0.017567978632201   0.000000000000000
   0.000201788442009   0.059064639965515   0.000000000000000
  -0.000201788442009  -0.059064639965515   0.000000000000000
 
 @CHECKOUT-I, Total execution time (CPU/WALL):        0.06/       0.09 seconds.
--executable xjoda finished with status     0 in        0.15 seconds (walltime).
  The final electronic energy is      -151.261375425812702 a.u. 
  This computation required                        52052.65 seconds (walltime).
