
    -----------------------------------------------------------------------
          Psi4: An Open-Source Ab Initio Electronic Structure Package
                               Psi4 1.4a2.dev191 

                         Git: Rev {master} 0ab5346 


    R. M. Parrish, L. A. Burns, D. G. A. Smith, A. C. Simmonett,
    A. E. DePrince III, E. G. Hohenstein, U. Bozkaya, A. Yu. Sokolov,
    R. Di Remigio, R. M. Richard, J. F. Gonthier, A. M. James,
    H. R. McAlexander, A. Kumar, M. Saitow, X. Wang, B. P. Pritchard,
    P. Verma, H. F. Schaefer III, K. Patkowski, R. A. King, E. F. Valeev,
    F. A. Evangelista, J. M. Turney, T. D. Crawford, and C. D. Sherrill,
    J. Chem. Theory Comput. 13(7) pp 3185--3197 (2017).
    (doi: 10.1021/acs.jctc.7b00174)


                         Additional Contributions by
    P. Kraus, H. Kruse, M. H. Lechner, M. C. Schieber, R. A. Shaw,
    A. Alenaizan, R. Galvelis, Z. L. Glick, S. Lehtola, and J. P. Misiewicz

    -----------------------------------------------------------------------


    Psi4 started on: Tuesday, 23 February 2021 02:08PM

    Process ID: 13331
    Host:       c4-19.compute.lan
    PSIDATADIR: /apps/gb/PSI4/1.4.0/share/psi4
    Memory:     500.0 MiB
    Threads:    1
    
  ==> Input File <==

--------------------------------------------------------------------------
memory 10 GB

molecule {
0 3
O 
H 1 R1
O 1 R2 2 A1
H 3 R1 1 A1 2 D1
R1 = 0.9747006646
R2 = 100.0
A1 = 90.0
D1 = 180.0
}

set {
basis aug-cc-pvdz
e_convergence 10
reference uhf
scf_type pk
mp2_type conv
}

energy("mp2")

--------------------------------------------------------------------------

  Memory set to   9.313 GiB by Python driver.

*** tstart() called on c4-19.compute.lan
*** at Tue Feb 23 14:08:05 2021

   => Loading Basis Set <=

    Name: AUG-CC-PVDZ
    Role: ORBITAL
    Keyword: BASIS
    atoms 1, 3 entry O          line   254 file /apps/gb/PSI4/1.4.0/share/psi4/basis/aug-cc-pvdz.gbs 
    atoms 2, 4 entry H          line    40 file /apps/gb/PSI4/1.4.0/share/psi4/basis/aug-cc-pvdz.gbs 


         ---------------------------------------------------------
                                   SCF
               by Justin Turney, Rob Parrish, Andy Simmonett
                          and Daniel G. A. Smith
                              UHF Reference
                        1 Threads,   9536 MiB Core
         ---------------------------------------------------------

  ==> Geometry <==

    Molecular point group: c2h
    Full point group: C2h

    Geometry (in Angstrom), charge = 0, multiplicity = 3:

       Center              X                  Y                   Z               Mass       
    ------------   -----------------  -----------------  -----------------  -----------------
         O           50.000000000000     0.000000000000     0.000000000000    15.994914619570
         H           50.000000000000    -0.974700664600     0.000000000000     1.007825032230
         O          -50.000000000000     0.000000000000     0.000000000000    15.994914619570
         H          -50.000000000000     0.974700664600     0.000000000000     1.007825032230

  Running in c2h symmetry.

  Rotational constants: A =      9.35786  B =      0.00020  C =      0.00020 [cm^-1]
  Rotational constants: A = 280541.48839  B =      5.94467  C =      5.94454 [MHz]
  Nuclear repulsion =    9.115229106411288

  Charge       = 0
  Multiplicity = 3
  Electrons    = 18
  Nalpha       = 10
  Nbeta        = 8

  ==> Algorithm <==

  SCF Algorithm Type is PK.
  DIIS enabled.
  MOM disabled.
  Fractional occupation disabled.
  Guess Type is SAD.
  Energy threshold   = 1.00e-10
  Density threshold  = 1.00e-08
  Integral threshold = 0.00e+00

  ==> Primary Basis <==

  Basis Set: AUG-CC-PVDZ
    Blend: AUG-CC-PVDZ
    Number of shells: 28
    Number of basis function: 64
    Number of Cartesian functions: 68
    Spherical Harmonics?: true
    Max angular momentum: 2

  ==> Pre-Iterations <==

   -------------------------------------------------------
    Irrep   Nso     Nmo     Nalpha   Nbeta   Ndocc  Nsocc
   -------------------------------------------------------
     Ag        23      23       0       0       0       0
     Bg         9       9       0       0       0       0
     Au         9       9       0       0       0       0
     Bu        23      23       0       0       0       0
   -------------------------------------------------------
    Total      64      64      10       8       8       2
   -------------------------------------------------------

  ==> Integral Setup <==

  Using in-core PK algorithm.
   Calculation information:
      Number of atoms:                   4
      Number of AO shells:              28
      Number of primitives:             64
      Number of atomic orbitals:        68
      Number of basis functions:        64

      Integral cutoff                 1.00e-12
      Number of threads:                 1

  Performing in-core PK
  Using 4328480 doubles for integral storage.
  We computed 22155 shell quartets total.
  Whereas there are 82621 unique shell quartets.

  ==> DiskJK: Disk-Based J/K Matrices <==

    J tasked:                  Yes
    K tasked:                  Yes
    wK tasked:                  No
    Memory [MiB]:             7152
    Schwarz Cutoff:          1E-12

    OpenMP threads:              1

  Minimum eigenvalue in the overlap matrix is 3.4481842376E-03.
  Using Symmetric Orthogonalization.

  SCF Guess: Superposition of Atomic Densities via on-the-fly atomic UHF.

  ==> Iterations <==

                        Total Energy        Delta E     RMS |[F,P]|

   @UHF iter SAD:  -149.27018376691473   -1.49270e+02   0.00000e+00 
   @UHF iter   1:  -150.76106402993776   -1.49088e+00   8.56633e-03 DIIS
   @UHF iter   2:  -150.80056401284068   -3.95000e-02   3.27238e-03 DIIS
   @UHF iter   3:  -150.80590079960371   -5.33679e-03   9.51346e-04 DIIS
   @UHF iter   4:  -150.80676868034192   -8.67881e-04   3.21252e-04 DIIS
   @UHF iter   5:  -150.80692474447181   -1.56064e-04   1.40819e-04 DIIS
   @UHF iter   6:  -150.80696698748625   -4.22430e-05   4.99642e-05 DIIS
   @UHF iter   7:  -150.80697366535759   -6.67787e-06   1.47817e-05 DIIS
   @UHF iter   8:  -150.80697421851471   -5.53157e-07   3.61116e-06 DIIS
   @UHF iter   9:  -150.80697424421783   -2.57031e-08   9.38790e-07 DIIS
   @UHF iter  10:  -150.80697424606029   -1.84247e-09   1.33232e-07 DIIS
   @UHF iter  11:  -150.80697424609116   -3.08660e-11   1.64567e-08 DIIS
   @UHF iter  12:  -150.80697424609156   -3.97904e-13   4.40552e-09 DIIS
  Energy and wave function converged.


  ==> Post-Iterations <==

   @Spin Contamination Metric:   1.324861807E-02
   @S^2 Expected:                2.000000000E+00
   @S^2 Observed:                2.013248618E+00
   @S   Expected:                1.000000000E+00
   @S   Observed:                1.000000000E+00

    Orbital Energies [Eh]
    ---------------------

    Alpha Occupied:                                                       

       1Ag   -20.651774     1Bu   -20.651774     2Ag    -1.391640  
       2Bu    -1.391640     3Ag    -0.682879     3Bu    -0.682879  
       1Au    -0.656937     1Bg    -0.656937     4Ag    -0.561399  
       4Bu    -0.561399  

    Alpha Virtual:                                                        

       5Ag     0.035636     5Bu     0.035636     6Ag     0.178328  
       6Bu     0.178328     2Au     0.185249     2Bg     0.185249  
       7Ag     0.198166     7Bu     0.198166     8Ag     0.225292  
       8Bu     0.225292     9Ag     0.315801     9Bu     0.315801  
       3Au     0.385889     3Bg     0.385889    10Ag     0.396189  
      10Bu     0.396189    11Ag     0.624915    11Bu     0.624915  
      12Ag     0.839411    12Bu     0.839411     4Au     0.956603  
       4Bg     0.956603    13Ag     0.958313    13Bu     0.958313  
       5Au     1.086621     5Bg     1.086621    14Ag     1.117030  
      14Bu     1.117030    15Ag     1.316479    15Bu     1.316479  
       6Au     1.327625     6Bg     1.327625    16Ag     1.386498  
      16Bu     1.386498    17Ag     1.660371    17Bu     1.660371  
       7Au     2.010461     7Bg     2.010461    18Ag     2.028157  
      18Bu     2.028157    19Ag     2.484235    19Bu     2.484235  
      20Ag     2.759554    20Bu     2.759554    21Ag     3.484212  
      21Bu     3.484212     8Au     3.484333     8Bg     3.484333  
       9Au     3.591402     9Bg     3.591402    22Ag     3.651664  
      22Bu     3.651664    23Ag     4.089432    23Bu     4.089432  

    Beta Occupied:                                                        

       1Ag   -20.610853     1Bu   -20.610853     2Ag    -1.233490  
       2Bu    -1.233490     3Ag    -0.638620     3Bu    -0.638620  
       4Ag    -0.511702     4Bu    -0.511702  

    Beta Virtual:                                                         

       5Ag     0.037111     5Bu     0.037111     1Au     0.064603  
       1Bg     0.064603     6Ag     0.181784     6Bu     0.181784  
       7Ag     0.201627     7Bu     0.201627     8Ag     0.232135  
       8Bu     0.232135     2Au     0.258003     2Bg     0.258003  
       9Ag     0.320933     9Bu     0.320933    10Ag     0.395726  
      10Bu     0.395726     3Au     0.408898     3Bg     0.408898  
      11Ag     0.639739    11Bu     0.639739    12Ag     0.849477  
      12Bu     0.849477     4Au     0.995287     4Bg     0.995287  
      13Ag     0.996364    13Bu     0.996364    14Ag     1.119282  
      14Bu     1.119282     5Au     1.132162     5Bg     1.132162  
      15Ag     1.331570    15Bu     1.331570    16Ag     1.409741  
      16Bu     1.409741     6Au     1.498256     6Bg     1.498256  
      17Ag     1.683455    17Bu     1.683455     7Au     2.018164  
       7Bg     2.018164    18Ag     2.024760    18Bu     2.024760  
      19Ag     2.516320    19Bu     2.516320    20Ag     2.775437  
      20Bu     2.775437     8Au     3.584633     8Bg     3.584633  
      21Ag     3.585339    21Bu     3.585339    22Ag     3.670417  
      22Bu     3.670417     9Au     3.688226     9Bg     3.688226  
      23Ag     4.123658    23Bu     4.123658  

    Final Occupation by Irrep:
             Ag    Bg    Au    Bu 
    DOCC [     4,    0,    0,    4 ]
    SOCC [     0,    1,    1,    0 ]

  @UHF Final Energy:  -150.80697424609156

   => Energetics <=

    Nuclear Repulsion Energy =              9.1152291064112880
    One-Electron Energy =                -225.9658177763263893
    Two-Electron Energy =                  66.0436144238235272
    Total Energy =                       -150.8069742460915847

  UHF NO Occupations:
  HONO-2 :    4 Ag 1.9980087
  HONO-1 :    1 Au 1.0000000
  HONO-0 :    1 Bg 1.0000000
  LUNO+0 :    5 Bu 0.0019913
  LUNO+1 :    5 Ag 0.0019913
  LUNO+2 :    6 Bu 0.0007631
  LUNO+3 :    6 Ag 0.0007631


Computation Completed


Properties will be evaluated at   0.000000,   0.000000,   0.000000 [a0]

Properties computed using the SCF density matrix

  Nuclear Dipole Moment: [e a0]
     X:     0.0000      Y:     0.0000      Z:     0.0000

  Electronic Dipole Moment: [e a0]
     X:     0.0000      Y:     0.0000      Z:     0.0000

  Dipole Moment: [e a0]
     X:     0.0000      Y:     0.0000      Z:     0.0000     Total:     0.0000

  Dipole Moment: [D]
     X:     0.0000      Y:     0.0000      Z:     0.0000     Total:     0.0000


*** tstop() called on c4-19.compute.lan at Tue Feb 23 14:08:05 2021
Module time:
	user time   =       0.70 seconds =       0.01 minutes
	system time =       0.02 seconds =       0.00 minutes
	total time  =          0 seconds =       0.00 minutes
Total time:
	user time   =       0.70 seconds =       0.01 minutes
	system time =       0.02 seconds =       0.00 minutes
	total time  =          0 seconds =       0.00 minutes
 MINTS: Wrapper to libmints.
   by Justin Turney

   Calculation information:
      Number of threads:                 1
      Number of atoms:                   4
      Number of AO shells:              28
      Number of SO shells:              14
      Number of primitives:             64
      Number of atomic orbitals:        68
      Number of basis functions:        64

      Number of irreps:                  4
      Integral cutoff                 0.00e+00
      Number of functions per irrep: [  23    9    9   23 ]

 OEINTS: Overlap, kinetic, potential, dipole, and quadrupole integrals
         stored in file 35.

      Computing two-electron integrals...done
      Computed 491638 non-zero two-electron integrals.
        Stored in file 33.


*** tstart() called on c4-19.compute.lan
*** at Tue Feb 23 14:08:06 2021


 ============================================================================== 
 ============================================================================== 
 ============================================================================== 

                       MP2   
              Program Written by Ugur Bozkaya,
              Latest Revision June 25, 2014.

 ============================================================================== 
 ============================================================================== 
 ============================================================================== 

	RMS orbital gradient is changed to :     1.00e-07
	MAX orbital gradient is changed to :     1.00e-04
	MO spaces per irreps... 

	IRREP   FC   AOCC  BOCC  AVIR    BVIR  FV 
	==========================================
	  Ag     0     4     4    19     19     0
	  Bg     0     1     0     8      9     0
	  Au     0     1     0     8      9     0
	  Bu     0     4     4    19     19     0
	==========================================

	Computing MP2 energy using SCF MOs (Canonical MP2)... 
	============================================================================== 
	Nuclear Repulsion Energy (a.u.)    :     9.11522910641129
	SCF Energy (a.u.)                  :  -150.80697424609156
	REF Energy (a.u.)                  :  -150.80697424609156
	Alpha-Alpha Contribution (a.u.)    :    -0.05440034458790
	Alpha-Beta Contribution (a.u.)     :    -0.24781103971764
	Beta-Beta Contribution (a.u.)      :    -0.02626273154720
	Scaled_SS Correlation Energy (a.u.):    -0.02688769204503
	Scaled_OS Correlation Energy (a.u.):    -0.29737324766116
	SCS-MP2 Total Energy (a.u.)        :  -151.13123518579775
	SOS-MP2 Total Energy (a.u.)        :  -150.80697424609156
	SCSN-MP2 Total Energy (a.u.)       :  -150.94894126008936
	SCS-MP2-VDW Total Energy (a.u.)    :  -151.16450391499768
	SOS-PI-MP2 Total Energy (a.u.)     :  -151.15390970169625
	MP2 Correlation Energy (a.u.)      :    -0.32847411585274
	MP2 Total Energy (a.u.)            :  -151.13544836194430
	============================================================================== 

*** tstop() called on c4-19.compute.lan at Tue Feb 23 14:08:06 2021
Module time:
	user time   =       0.11 seconds =       0.00 minutes
	system time =       0.03 seconds =       0.00 minutes
	total time  =          0 seconds =       0.00 minutes
Total time:
	user time   =       0.99 seconds =       0.02 minutes
	system time =       0.06 seconds =       0.00 minutes
	total time  =          1 seconds =       0.02 minutes

    Psi4 stopped on: Tuesday, 23 February 2021 02:08PM
    Psi4 wall time for execution: 0:00:01.11

*** Psi4 exiting successfully. Buy a developer a beer!
