
    -----------------------------------------------------------------------
          Psi4: An Open-Source Ab Initio Electronic Structure Package
                               Psi4 1.3.2 release

                         Git: Rev {HEAD} ecbda83 


    R. M. Parrish, L. A. Burns, D. G. A. Smith, A. C. Simmonett,
    A. E. DePrince III, E. G. Hohenstein, U. Bozkaya, A. Yu. Sokolov,
    R. Di Remigio, R. M. Richard, J. F. Gonthier, A. M. James,
    H. R. McAlexander, A. Kumar, M. Saitow, X. Wang, B. P. Pritchard,
    P. Verma, H. F. Schaefer III, K. Patkowski, R. A. King, E. F. Valeev,
    F. A. Evangelista, J. M. Turney, T. D. Crawford, and C. D. Sherrill,
    J. Chem. Theory Comput. 13(7) pp 3185--3197 (2017).
    (doi: 10.1021/acs.jctc.7b00174)


                         Additional Contributions by
    P. Kraus, H. Kruse, M. H. Lechner, M. C. Schieber, R. A. Shaw,
    A. Alenaizan, R. Galvelis, Z. L. Glick, S. Lehtola, and J. P. Misiewicz

    -----------------------------------------------------------------------


    Psi4 started on: Wednesday, 10 March 2021 09:16AM

    Process ID: 170987
    Host:       c5-7.compute.lan
    PSIDATADIR: /apps/gb/PSI4/1.3.2/share/psi4
    Memory:     500.0 MiB
    Threads:    12
    
  ==> Input File <==

--------------------------------------------------------------------------
memory 4 GB

molecule  {
0 3
O    0.000000000000    0.000000000000   -1.261379187475
H    0.000000000000   -0.762389765100   -0.669896855756
H   -0.000000000000    0.762389765100   -0.669896855756
O    0.000000000000    0.000000000000    1.345798371484
}
set {
basis aug-cc-pvtz
reference uhf
e_convergence 10
scf_type pk
freeze_core true
}

set ccenergy {
e_convergence 10
r_convergence 10
}

e = energy('ccsd(t)')

print_out('Stephenergy {}'.format(e))

--------------------------------------------------------------------------

  Memory set to   3.725 GiB by Python driver.

*** tstart() called on c5-7.compute.lan
*** at Wed Mar 10 09:16:31 2021

   => Loading Basis Set <=

    Name: AUG-CC-PVTZ
    Role: ORBITAL
    Keyword: BASIS
    atoms 1, 4 entry O          line   327 file /apps/gb/PSI4/1.3.2/share/psi4/basis/aug-cc-pvtz.gbs 
    atoms 2-3  entry H          line    36 file /apps/gb/PSI4/1.3.2/share/psi4/basis/aug-cc-pvtz.gbs 


         ---------------------------------------------------------
                                   SCF
               by Justin Turney, Rob Parrish, Andy Simmonett
                          and Daniel G. A. Smith
                              UHF Reference
                       12 Threads,   3814 MiB Core
         ---------------------------------------------------------

  ==> Geometry <==

    Molecular point group: c2v
    Full point group: C2v

    Geometry (in Angstrom), charge = 0, multiplicity = 3:

       Center              X                  Y                   Z               Mass       
    ------------   -----------------  -----------------  -----------------  -----------------
         O           -0.000000000000     0.000000000000    -1.261379187475    15.994914619570
         H            0.000000000000    -0.762389765100    -0.669896855756     1.007825032230
         H           -0.000000000000     0.762389765100    -0.669896855756     1.007825032230
         O           -0.000000000000     0.000000000000     1.345798371484    15.994914619570

  Running in c2v symmetry.

  Rotational constants: A =     14.38889  B =      0.30471  C =      0.29839 [cm^-1]
  Rotational constants: A = 431368.02280  B =   9135.01919  C =   8945.57992 [MHz]
  Nuclear repulsion =   26.040477186626546

  Charge       = 0
  Multiplicity = 3
  Electrons    = 18
  Nalpha       = 10
  Nbeta        = 8

  ==> Algorithm <==

  SCF Algorithm Type is PK.
  DIIS enabled.
  MOM disabled.
  Fractional occupation disabled.
  Guess Type is SAD.
  Energy threshold   = 1.00e-10
  Density threshold  = 1.00e-08
  Integral threshold = 0.00e+00

  ==> Primary Basis <==

  Basis Set: AUG-CC-PVTZ
    Blend: AUG-CC-PVTZ
    Number of shells: 46
    Number of basis function: 138
    Number of Cartesian functions: 160
    Spherical Harmonics?: true
    Max angular momentum: 3

  ==> Pre-Iterations <==

   -------------------------------------------------------
    Irrep   Nso     Nmo     Nalpha   Nbeta   Ndocc  Nsocc
   -------------------------------------------------------
     A1        54      54       0       0       0       0
     A2        17      17       0       0       0       0
     B1        29      29       0       0       0       0
     B2        38      38       0       0       0       0
   -------------------------------------------------------
    Total     138     138      10       8       8       2
   -------------------------------------------------------

  ==> Integral Setup <==

  Using in-core PK algorithm.
   Calculation information:
      Number of atoms:                   4
      Number of AO shells:              46
      Number of primitives:             82
      Number of atomic orbitals:       160
      Number of basis functions:       138

      Integral cutoff                 1.00e-12
      Number of threads:                12

  Performing in-core PK
  Using 91996872 doubles for integral storage.
  We computed 946063 shell quartets total.
  Whereas there are 584821 unique shell quartets.
    61.77 percent of shell quartets recomputed by reordering.

  ==> DiskJK: Disk-Based J/K Matrices <==

    J tasked:                  Yes
    K tasked:                  Yes
    wK tasked:                  No
    Memory [MiB]:             2861
    Schwarz Cutoff:          1E-12

    OpenMP threads:             12

  Minimum eigenvalue in the overlap matrix is 3.4250417487E-04.
  Using Symmetric Orthogonalization.

  SCF Guess: Superposition of Atomic Densities via on-the-fly atomic UHF.

  ==> Iterations <==

                        Total Energy        Delta E     RMS |[F,P]|

   @UHF iter SAD:  -149.44516048513992   -1.49445e+02   0.00000e+00 
   @UHF iter   1:  -150.75480169832338   -1.30964e+00   6.72450e-03 DIIS
   @UHF iter   2:  -150.83108227589901   -7.62806e-02   4.27627e-03 DIIS
   @UHF iter   3:  -150.86482092925553   -3.37387e-02   6.56627e-04 DIIS
   @UHF iter   4:  -150.86709716161096   -2.27623e-03   1.83755e-04 DIIS
   @UHF iter   5:  -150.86727980308194   -1.82641e-04   7.68179e-05 DIIS
   @UHF iter   6:  -150.86732145519244   -4.16521e-05   2.68506e-05 DIIS
   @UHF iter   7:  -150.86732708602131   -5.63083e-06   9.01806e-06 DIIS
   @UHF iter   8:  -150.86732777959139   -6.93570e-07   4.05828e-06 DIIS
   @UHF iter   9:  -150.86732794661503   -1.67024e-07   1.60481e-06 DIIS
   @UHF iter  10:  -150.86732797636282   -2.97478e-08   4.20217e-07 DIIS
   @UHF iter  11:  -150.86732797806258   -1.69976e-09   8.74411e-08 DIIS
   @UHF iter  12:  -150.86732797810922   -4.66400e-11   2.02878e-08 DIIS
   @UHF iter  13:  -150.86732797811209   -2.87059e-12   7.62025e-09 DIIS
  Energy and wave function converged.


  ==> Post-Iterations <==

   @Spin Contamination Metric:   9.836754000E-03
   @S^2 Expected:                2.000000000E+00
   @S^2 Observed:                2.009836754E+00
   @S   Expected:                1.000000000E+00
   @S   Observed:                1.000000000E+00

    Orbital Energies [Eh]
    ---------------------

    Alpha Occupied:                                                       

       1A1   -20.734946     2A1   -20.568301     3A1    -1.448357  
       4A1    -1.352735     5A1    -0.746419     1B1    -0.736531  
       1B2    -0.717032     2B2    -0.636409     6A1    -0.581344  
       2B1    -0.510967  

    Alpha Virtual:                                                        

       7A1     0.036737     3B2     0.050225     8A1     0.119779  
       3B1     0.130665     9A1     0.155581     4B2     0.166252  
       4B1     0.189710     5B2     0.190704    10A1     0.192379  
       1A2     0.263494    11A1     0.264079     6B2     0.273952  
      12A1     0.289401     5B1     0.335445     7B2     0.393669  
      13A1     0.403777    14A1     0.452990     8B2     0.475011  
       9B2     0.631771     2A2     0.644457     6B1     0.651156  
      15A1     0.659212    16A1     0.678599    17A1     0.709762  
       3A2     0.723713    18A1     0.735214    10B2     0.766181  
       7B1     0.789700     8B1     0.838272    19A1     0.882385  
      11B2     0.886860     9B1     0.921910    12B2     0.942733  
      20A1     0.978582     4A2     0.980589    21A1     1.024265  
      10B1     1.027392    13B2     1.056438    22A1     1.092188  
      14B2     1.123403    23A1     1.139859     5A2     1.207276  
      11B1     1.219459    24A1     1.238554    15B2     1.251127  
      16B2     1.437819     6A2     1.509615    25A1     1.563084  
      12B1     1.580375    17B2     1.759259    26A1     1.806395  
      27A1     1.848928    18B2     1.947389    13B1     2.004661  
      28A1     2.030264    14B1     2.037176     7A2     2.073968  
      19B2     2.075065    29A1     2.088406    30A1     2.167437  
      15B1     2.169838     8A2     2.179224    20B2     2.204930  
      31A1     2.204999     9A2     2.372192    32A1     2.376904  
      16B1     2.423496    21B2     2.437353    33A1     2.460554  
      17B1     2.511120    22B2     2.522325    34A1     2.539340  
      18B1     2.732170    35A1     2.732235    23B2     2.750295  
      10A2     2.881031    36A1     2.889479    24B2     2.936997  
      25B2     3.676881    37A1     3.812211    11A2     4.032091  
      19B1     4.074906    20B1     4.106317    38A1     4.206303  
      26B2     4.228817    21B1     4.306663    27B2     4.313993  
      12A2     4.379512    22B1     4.441156    39A1     4.452587  
      40A1     4.580583    28B2     4.650628    41A1     4.744274  
      29B2     4.891637    13A2     5.146173    30B2     5.150364  
      31B2     5.267564    42A1     5.355086    23B1     5.507376  
      43A1     5.686518    44A1     6.220168    24B1     6.390542  
      32B2     6.398803    25B1     6.423395    14A2     6.442906  
      45A1     6.462161    33B2     6.529559    46A1     6.586495  
      34B2     6.700581    26B1     6.767644    27B1     6.879654  
      47A1     6.881993    15A2     6.894627    48A1     6.960353  
      49A1     6.981371    35B2     7.006237    28B1     7.163522  
      29B1     7.256842    16A2     7.302241    17A2     7.357746  
      36B2     7.365942    50A1     7.375262    51A1     7.579644  
      37B2     7.937305    52A1     7.975726    38B2     8.783570  
      53A1     9.752104    54A1    15.690784  

    Beta Occupied:                                                        

       1A1   -20.656090     2A1   -20.566912     3A1    -1.349781  
       4A1    -1.104716     1B2    -0.715252     5A1    -0.580831  
       2B2    -0.547066     1B1    -0.508950  

    Beta Virtual:                                                         

       6A1     0.037530     2B1     0.046448     3B2     0.050577  
       7A1     0.052379     8A1     0.141968     3B1     0.159969  
       4B2     0.168231     9A1     0.182259     5B2     0.192961  
      10A1     0.193974     4B1     0.226531     1A2     0.263778  
      11A1     0.267601     6B2     0.274264    12A1     0.297271  
       5B1     0.343511     7B2     0.395893    13A1     0.431759  
      14A1     0.457133     8B2     0.475136     9B2     0.631454  
       2A2     0.658718     6B1     0.670188    15A1     0.673781  
      16A1     0.702792    17A1     0.711835     3A2     0.724067  
      10B2     0.782183    18A1     0.791616     7B1     0.817983  
      19A1     0.892098    11B2     0.900860     8B1     0.918123  
       9B1     0.935084    12B2     0.946627     4A2     0.982547  
      20A1     0.984291    21A1     1.033941    13B2     1.057341  
      10B1     1.057470    22A1     1.112955    14B2     1.132233  
      23A1     1.204480     5A2     1.208434    11B1     1.241485  
      24A1     1.250205    15B2     1.251459    16B2     1.443942  
       6A2     1.509831    12B1     1.581184    25A1     1.583521  
      17B2     1.763564    26A1     1.815008    27A1     1.887191  
      18B2     1.950356    13B1     2.028155    28A1     2.089009  
      19B2     2.089723    14B1     2.103740    29A1     2.137601  
       7A2     2.141815     8A2     2.210388    30A1     2.230561  
      31A1     2.234463    15B1     2.253587    20B2     2.274779  
       9A2     2.380343    32A1     2.413001    16B1     2.453244  
      21B2     2.455146    33A1     2.479031    17B1     2.512023  
      22B2     2.530032    34A1     2.551813    18B1     2.733233  
      35A1     2.745188    23B2     2.753732    10A2     2.881411  
      36A1     2.897096    24B2     2.938748    25B2     3.677519  
      37A1     3.822527    11A2     4.031721    19B1     4.106144  
      20B1     4.227489    38A1     4.239624    26B2     4.246752  
      21B1     4.320921    27B2     4.339190    12A2     4.379179  
      22B1     4.445655    39A1     4.482567    28B2     4.653179  
      40A1     4.669824    41A1     4.746377    29B2     4.893217  
      13A2     5.146391    30B2     5.151646    31B2     5.268640  
      42A1     5.357580    23B1     5.507824    43A1     5.688142  
      44A1     6.225890    24B1     6.447700    32B2     6.456750  
      14A2     6.519006    25B1     6.530103    33B2     6.533185  
      45A1     6.537979    46A1     6.664673    34B2     6.764005  
      26B1     6.769621    47A1     6.957284    15A2     7.007378  
      48A1     7.015811    27B1     7.063292    35B2     7.115210  
      49A1     7.118581    28B1     7.166608    29B1     7.260088  
      16A2     7.303409    17A2     7.358859    36B2     7.366852  
      50A1     7.383590    51A1     7.585615    37B2     7.938782  
      52A1     7.978901    38B2     8.785491    53A1     9.823834  
      54A1    15.691749  

    Final Occupation by Irrep:
             A1    A2    B1    B2 
    DOCC [     5,    0,    1,    2 ]
    SOCC [     1,    0,    1,    0 ]

  @UHF Final Energy:  -150.86732797811209

   => Energetics <=

    Nuclear Repulsion Energy =             26.0404771866265463
    One-Electron Energy =                -259.7529716304047724
    Two-Electron Energy =                  82.8451664656661393
    Total Energy =                       -150.8673279781120868

  UHF NO Occupations:
  HONO-2 :    5 A1 1.9970622
  HONO-1 :    6 A1 1.0000000
  HONO-0 :    2 B1 1.0000000
  LUNO+0 :    7 A1 0.0029378
  LUNO+1 :    3 B2 0.0017487
  LUNO+2 :    8 A1 0.0002186
  LUNO+3 :    3 B1 0.0000126


Computation Completed


Properties will be evaluated at   0.000000,   0.000000,   0.000000 [a0]

Properties computed using the SCF density matrix

  Nuclear Dipole Moment: [e a0]
     X:    -0.0000      Y:     0.0000      Z:    -1.2556

  Electronic Dipole Moment: [e a0]
     X:     0.0000      Y:     0.0000      Z:     2.0740

  Dipole Moment: [e a0]
     X:    -0.0000      Y:     0.0000      Z:     0.8184     Total:     0.8184

  Dipole Moment: [D]
     X:    -0.0000      Y:     0.0000      Z:     2.0802     Total:     2.0802


*** tstop() called on c5-7.compute.lan at Wed Mar 10 09:16:36 2021
Module time:
	user time   =      44.13 seconds =       0.74 minutes
	system time =       0.72 seconds =       0.01 minutes
	total time  =          5 seconds =       0.08 minutes
Total time:
	user time   =      44.13 seconds =       0.74 minutes
	system time =       0.72 seconds =       0.01 minutes
	total time  =          5 seconds =       0.08 minutes
 MINTS: Wrapper to libmints.
   by Justin Turney

   Calculation information:
      Number of threads:                12
      Number of atoms:                   4
      Number of AO shells:              46
      Number of SO shells:              37
      Number of primitives:             82
      Number of atomic orbitals:       160
      Number of basis functions:       138

      Number of irreps:                  4
      Integral cutoff                 0.00e+00
      Number of functions per irrep: [  54   17   29   38 ]

 OEINTS: Overlap, kinetic, potential, dipole, and quadrupole integrals
         stored in file 35.

      Computing two-electron integrals...done
      Computed 11524624 non-zero two-electron integrals.
        Stored in file 33.


*** tstart() called on c5-7.compute.lan
*** at Wed Mar 10 09:16:38 2021


	Wfn Parameters:
	--------------------
	Wavefunction         = CCSD_T
	Number of irreps     = 4
	Number of MOs        = 138
	Number of active MOs = 136
	AO-Basis             = NONE
	Semicanonical        = false
	Reference            = UHF
	Print Level          = 1

	IRREP	# MOs	# FZDC	# DOCC	# SOCC	# VIRT	# FZVR
	-----	-----	------	------	------	------	------
	 A1	   54	    2	    3	    1	    48	    0
	 A2	   17	    0	    0	    0	    17	    0
	 B1	   29	    0	    1	    1	    27	    0
	 B2	   38	    0	    2	    0	    36	    0
	Transforming integrals...
	IWL integrals will be deleted.
	(OO|OO)...
	Presorting SO-basis two-electron integrals.
	Sorting File: SO Ints (nn|nn) nbuckets = 1
	Transforming the one-electron integrals and constructing Fock matrices
	Starting AA/AB first half-transformation.
	Sorting AA/AB half-transformed integrals.
	Starting BB first half-transformation.
	Sorting BB half-transformed integrals.
	First half integral transformation complete.
	Starting AA second half-transformation.
	Starting AB second half-transformation.
	Starting BB second half-transformation.
	Two-electron integral transformation complete.
	(OO|OV)...
	Starting AA second half-transformation.
	Starting AB second half-transformation.
	Starting BB second half-transformation.
	Two-electron integral transformation complete.
	(OO|VV)...
	Starting AA second half-transformation.
	Starting AB second half-transformation.
	Starting BB second half-transformation.
	Two-electron integral transformation complete.
	(OV|OO)...
	Starting AA/AB first half-transformation.
	Sorting AA/AB half-transformed integrals.
	Starting BB first half-transformation.
	Sorting BB half-transformed integrals.
	First half integral transformation complete.
	Starting AA second half-transformation.
	Starting AB second half-transformation.
	Starting BB second half-transformation.
	Two-electron integral transformation complete.
	(OV|OV)...
	Starting AA second half-transformation.
	Starting AB second half-transformation.
	Starting BB second half-transformation.
	Two-electron integral transformation complete.
	(OV|VV)...
	Starting AA second half-transformation.
	Starting AB second half-transformation.
	Starting BB second half-transformation.
	Two-electron integral transformation complete.
	(VV|OO)...
	Starting AA/AB first half-transformation.
	Sorting AA/AB half-transformed integrals.
	Starting BB first half-transformation.
	Sorting BB half-transformed integrals.
	First half integral transformation complete.
	Starting AA second half-transformation.
	Starting AB second half-transformation.
	Starting BB second half-transformation.
	Two-electron integral transformation complete.
	(VV|OV)...
	Starting AA second half-transformation.
	Starting AB second half-transformation.
	Starting BB second half-transformation.
	Two-electron integral transformation complete.
	(VV|VV)...
	Starting AA second half-transformation.
	Starting AB second half-transformation.
	Starting BB second half-transformation.
	Two-electron integral transformation complete.
	Frozen core energy     =   -127.07004691333601

	Size of irrep 0 of <AB|CD> integrals:      5.040 (MW) /     40.320 (MB)
	Size of irrep 1 of <AB|CD> integrals:      3.197 (MW) /     25.576 (MB)
	Size of irrep 2 of <AB|CD> integrals:      3.640 (MW) /     29.124 (MB)
	Size of irrep 3 of <AB|CD> integrals:      4.783 (MW) /     38.264 (MB)
	Total:                                    16.660 (MW) /    133.283 (MB)

	Size of irrep 0 of <ab|cd> integrals:      5.382 (MW) /     43.059 (MB)
	Size of irrep 1 of <ab|cd> integrals:      3.389 (MW) /     27.114 (MB)
	Size of irrep 2 of <ab|cd> integrals:      3.936 (MW) /     31.490 (MB)
	Size of irrep 3 of <ab|cd> integrals:      5.018 (MW) /     40.141 (MB)
	Total:                                    17.726 (MW) /    141.804 (MB)

	Size of irrep 0 of <Ab|Cd> integrals:     22.024 (MW) /    176.194 (MB)
	Size of irrep 1 of <Ab|Cd> integrals:     13.170 (MW) /    105.357 (MB)
	Size of irrep 2 of <Ab|Cd> integrals:     15.140 (MW) /    121.119 (MB)
	Size of irrep 3 of <Ab|Cd> integrals:     19.598 (MW) /    156.787 (MB)
	Total:                                    69.932 (MW) /    559.457 (MB)

	Size of irrep 0 of <IA|BC> integrals:      1.469 (MW) /     11.748 (MB)
	Size of irrep 1 of <IA|BC> integrals:      0.694 (MW) /      5.550 (MB)
	Size of irrep 2 of <IA|BC> integrals:      0.908 (MW) /      7.266 (MB)
	Size of irrep 3 of <IA|BC> integrals:      1.198 (MW) /      9.588 (MB)
	Total:                                     4.269 (MW) /     34.152 (MB)

	Size of irrep 0 of <ia|bc> integrals:      1.178 (MW) /      9.426 (MB)
	Size of irrep 1 of <ia|bc> integrals:      0.527 (MW) /      4.212 (MB)
	Size of irrep 2 of <ia|bc> integrals:      0.663 (MW) /      5.301 (MB)
	Size of irrep 3 of <ia|bc> integrals:      0.999 (MW) /      7.992 (MB)
	Total:                                     3.366 (MW) /     26.931 (MB)

	Size of irrep 0 of <Ia|Bc> integrals:      1.521 (MW) /     12.164 (MB)
	Size of irrep 1 of <Ia|Bc> integrals:      0.711 (MW) /      5.690 (MB)
	Size of irrep 2 of <Ia|Bc> integrals:      0.949 (MW) /      7.595 (MB)
	Size of irrep 3 of <Ia|Bc> integrals:      1.222 (MW) /      9.775 (MB)
	Total:                                     4.403 (MW) /     35.225 (MB)

	Size of irrep 0 of <iA|bC> integrals:      1.140 (MW) /      9.123 (MB)
	Size of irrep 1 of <iA|bC> integrals:      0.512 (MW) /      4.094 (MB)
	Size of irrep 2 of <iA|bC> integrals:      0.634 (MW) /      5.074 (MB)
	Size of irrep 3 of <iA|bC> integrals:      0.978 (MW) /      7.827 (MB)
	Total:                                     3.265 (MW) /     26.118 (MB)

	Size of irrep 0 of tIjAb amplitudes:       0.084 (MW) /      0.676 (MB)
	Size of irrep 1 of tIjAb amplitudes:       0.022 (MW) /      0.174 (MB)
	Size of irrep 2 of tIjAb amplitudes:       0.039 (MW) /      0.311 (MB)
	Size of irrep 3 of tIjAb amplitudes:       0.062 (MW) /      0.496 (MB)
	Total:                                     0.207 (MW) /      1.657 (MB)

	Nuclear Rep. energy          =     26.04047718662655
	SCF energy                   =   -150.86732797811209
	One-electron energy          =    -88.13912524986353
	Two-electron (AA) energy     =     10.77698943858071
	Two-electron (BB) energy     =      5.65968754306413
	Two-electron (AB) energy     =     21.86469001681398
	Two-electron energy          =     38.30136699845882
	Reference energy             =   -150.86732797811419

*** tstop() called on c5-7.compute.lan at Wed Mar 10 09:17:00 2021
Module time:
	user time   =      66.82 seconds =       1.11 minutes
	system time =       9.68 seconds =       0.16 minutes
	total time  =         22 seconds =       0.37 minutes
Total time:
	user time   =     116.76 seconds =       1.95 minutes
	system time =      10.80 seconds =       0.18 minutes
	total time  =         29 seconds =       0.48 minutes
            **************************
            *                        *
            *        CCENERGY        *
            *                        *
            **************************

    Nuclear Rep. energy (wfn)     =   26.040477186626546
    SCF energy          (wfn)     = -150.867327978112087
    Reference energy    (file100) = -150.867327978114190

    Input parameters:
    -----------------
    Wave function   =     CCSD_T
    Reference wfn   =     UHF
    Brueckner       =     No
    Memory (Mbytes) =     4000.0
    Maxiter         =     50
    R_Convergence   =     1.0e-10
    E_Convergence   =     1.0e-10
    Restart         =     Yes
    DIIS            =     Yes
    AO Basis        =     NONE
    ABCD            =     NEW
    Cache Level     =     2
    Cache Type      =     LRU
    Print Level     =     1
    Num. of threads =     12
    # Amps to Print =     10
    Print MP2 Amps? =     No
    Analyze T2 Amps =     No
    Print Pair Ener =     No
    Local CC        =     No
    SCS-MP2         =     False
    SCSN-MP2        =     False
    SCS-CCSD        =     False

MP2 correlation energy -0.4187571555334066
                Solving CC Amplitude Equations
                ------------------------------
  Iter             Energy              RMS        T1Diag      D1Diag    New D1Diag    D2Diag
  ----     ---------------------    ---------   ----------  ----------  ----------   --------
     0        -0.418757155533407    0.000e+00    0.000000    0.000000    0.000000    0.000000
     1        -0.429279583554805    6.060e-02    0.011886    0.000000    0.000000    0.000000
     2        -0.437614158704105    1.837e-02    0.012556    0.000000    0.000000    0.000000
     3        -0.439923011253871    1.185e-02    0.015259    0.000000    0.000000    0.000000
     4        -0.439863836254769    4.384e-03    0.016388    0.000000    0.000000    0.000000
     5        -0.439825908059699    3.004e-03    0.017157    0.000000    0.000000    0.000000
     6        -0.439892040819707    1.172e-03    0.017524    0.000000    0.000000    0.000000
     7        -0.439901783864473    5.518e-04    0.017621    0.000000    0.000000    0.000000
     8        -0.439900970475555    2.035e-04    0.017663    0.000000    0.000000    0.000000
     9        -0.439904306261118    1.076e-04    0.017669    0.000000    0.000000    0.000000
    10        -0.439899270194879    5.640e-05    0.017682    0.000000    0.000000    0.000000
    11        -0.439899765476286    2.643e-05    0.017682    0.000000    0.000000    0.000000
    12        -0.439899580706739    1.040e-05    0.017684    0.000000    0.000000    0.000000
    13        -0.439899741968844    5.361e-06    0.017683    0.000000    0.000000    0.000000
    14        -0.439899934674270    2.190e-06    0.017684    0.000000    0.000000    0.000000
    15        -0.439899940044393    9.904e-07    0.017683    0.000000    0.000000    0.000000
    16        -0.439899944081124    4.337e-07    0.017684    0.000000    0.000000    0.000000
    17        -0.439899945639771    1.468e-07    0.017684    0.000000    0.000000    0.000000
    18        -0.439899943351069    7.448e-08    0.017684    0.000000    0.000000    0.000000
    19        -0.439899943098047    2.222e-08    0.017684    0.000000    0.000000    0.000000
    20        -0.439899943310593    1.060e-08    0.017684    0.000000    0.000000    0.000000
    21        -0.439899943176713    4.439e-09    0.017684    0.000000    0.000000    0.000000
    22        -0.439899943175668    1.957e-09    0.017684    0.000000    0.000000    0.000000
    23        -0.439899943196304    7.029e-10    0.017684    0.000000    0.000000    0.000000
    24        -0.439899943197723    2.152e-10    0.017684    0.000000    0.000000    0.000000
    25        -0.439899943198727    1.188e-10    0.017684    0.000000    0.000000    0.000000
    26        -0.439899943200479    4.076e-11    0.017684    0.000000    0.000000    0.000000

    Iterations converged.


    Largest TIA Amplitudes:
              5  67        -0.0142935632
              5  65        -0.0124281676
              4  65        -0.0087976382
              2   6        -0.0086362674
              7  94         0.0081400436
              7  93        -0.0078132175
              5  66        -0.0069192358
              2   2         0.0068432907
              3   6        -0.0059978809
              2   1        -0.0056788781

    Largest Tia Amplitudes:
              2   1         0.0313676739
              3  66        -0.0236325959
              2   2         0.0150946570
              2   3        -0.0142054494
              3  69        -0.0125799089
              3  68        -0.0101234273
              5  96         0.0069910074
              3  67        -0.0066593503
              2   0        -0.0059508506
              2   6        -0.0054718786

    Largest TIJAB Amplitudes:
      7   4  54  22         0.0112610196
      7   4 100  70         0.0105789297
      6   3  98   9         0.0084763837
      7   2 109  22         0.0083006841
      4   2  70  16         0.0079775982
      6   5  50  10        -0.0079079900
      7   4 100  69         0.0077167506
      7   2 100  11        -0.0076517249
      7   2  99  11        -0.0076422100
      4   2  69  11         0.0075979619

    Largest Tijab Amplitudes:
      4   2 100  10         0.0088619445
      5   1  66  50         0.0087487857
      5   1 101   1         0.0081598484
      5   1 111   1        -0.0078409581
      4   3  51  11        -0.0075458397
      4   3  99  74        -0.0073067936
      4   3  99  69        -0.0072412866
      5   1  66  55        -0.0072012122
      4   3  99  72        -0.0065329881
      4   3  54  11        -0.0064125086

    Largest TIjAb Amplitudes:
      7   5 100 102        -0.0187536180
      7   1  54  66         0.0174887723
      5   3  72  74        -0.0167771182
      7   1 109   1        -0.0166856058
      6   4  97  99        -0.0161118218
      6   4  98 100        -0.0159861813
      4   1  21  66         0.0139539221
      7   1  49  66        -0.0138774414
      7   1  99   1         0.0135709694
      5   3  72  72        -0.0132702475

    SCF energy       (wfn)                    = -150.867327978112087
    Reference energy (file100)                = -150.867327978114190

    Opposite-spin MP2 correlation energy      =   -0.315889280980618
    Same-spin MP2 correlation energy          =   -0.102867874552789
    MP2 correlation energy                    =   -0.418757155533407
      * MP2 total energy                      = -151.286085133647589

    Opposite-spin CCSD correlation energy     =   -0.343625905149621
    Same-spin CCSD correlation energy         =   -0.096274038050858
    CCSD correlation energy                   =   -0.439899943200479
      * CCSD total energy                     = -151.307227921314677

            **************************
            *                        *
            *        CCTRIPLES       *
            *                        *
            **************************


    Wave function   =    CCSD_T
    Reference wfn   =      UHF

    Nuclear Rep. energy (wfn)                =   26.040477186626546
    SCF energy          (wfn)                = -150.867327978112087
    Reference energy    (file100)            = -150.867327978114190
    CCSD energy         (file100)            =   -0.439899943200479
    Total CCSD energy   (file100)            = -151.307227921314677

    Number of ijk index combinations:
    Spin Case AAA:                                  56
    Spin Case BBB:                                  20
    Spin Case AAB:                                 168
    Spin Case ABB:                                 120
    AAA (T) energy                             =   -0.000410678129918
    BBB (T) energy                             =   -0.000234196580084
    AAB (T) energy                             =   -0.006916909370533
    ABB (T) energy                             =   -0.005246960803411
    (T) energy                                   =   -0.012808744883947
      * CCSD(T) total energy                     = -151.320036666198604

Stephenergy -151.3200366661986
    Psi4 stopped on: Wednesday, 10 March 2021 09:18AM
    Psi4 wall time for execution: 0:01:30.28

*** Psi4 exiting successfully. Buy a developer a beer!
